
                                 *****************
                                 * O   R   C   A *
                                 *****************

           --- An Ab Initio, DFT and Semiempirical electronic structure package ---

                  #######################################################
                  #                        -***-                        #
                  #  Department of molecular theory and spectroscopy    #
                  #              Directorship: Frank Neese              #
                  # Max Planck Institute for Chemical Energy Conversion #
                  #                  D-45470 Muelheim/Ruhr              #
                  #                       Germany                       #
                  #                                                     #
                  #                  All rights reserved                #
                  #                        -***-                        #
                  #######################################################


                         Program Version 3.0.3 - RELEASE   -


 With contributions from (in alphabetic order):
   Ute Becker             : Parallelization
   Dmytro Bykov           : SCF Hessian
   Dmitry Ganyushin       : Spin-Orbit,Spin-Spin,Magnetic field MRCI
   Andreas Hansen         : Spin unrestricted coupled pair/coupled cluster methods
   Dimitrios Liakos       : Extrapolation schemes; parallel MDCI
   Robert Izsak           : Overlap fitted RIJCOSX, COSX-SCS-MP3
   Christian Kollmar      : KDIIS, OOCD, Brueckner-CCSD(T), CCSD density
   Simone Kossmann        : Meta GGA functionals, TD-DFT gradient, OOMP2, MP2 Hessian
   Taras Petrenko         : DFT Hessian,TD-DFT gradient, ASA and ECA modules, normal mode analysis, Resonance Raman, ABS, FL, XAS/XES, NRVS
   Christoph Reimann      : Effective Core Potentials
   Michael Roemelt        : Restricted open shell CIS
   Christoph Riplinger    : Improved optimizer, TS searches, QM/MM, DLPNO-CCSD
   Barbara Sandhoefer     : DKH picture change effects
   Igor Schapiro          : Molecular dynamics
   Kantharuban Sivalingam : CASSCF convergence, NEVPT2
   Boris Wezisla          : Elementary symmetry handling
   Frank Wennmohs         : Technical directorship


 We gratefully acknowledge several colleagues who have allowed us to
 interface, adapt or use parts of their codes:
   Stefan Grimme, W. Hujo, H. Kruse, T. Risthaus : VdW corrections, initial TS optimization,
                                                   DFT functionals, gCP
   Ed Valeev                                     : LibInt (2-el integral package), F12 methods
   Garnet Chan, S. Sharma, R. Olivares           : DMRG
   Ulf Ekstrom                                   : XCFun DFT Library
   Mihaly Kallay                                 : mrcc  (arbitrary order and MRCC methods)
   Andreas Klamt, Michael Diedenhofen            : otool_cosmo (COSMO solvation model)
   Frank Weinhold                                : gennbo (NPA and NBO analysis)
   Christopher J. Cramer and Donald G. Truhlar   : smd solvation model


 Your calculation uses the libint2 library for the computation of 2-el integrals
 For citations please refer to: http://libint.valeyev.net

 This ORCA versions uses:
   CBLAS   interface :  Fast vector & matrix operations
   LAPACKE interface :  Fast linear algebra routines
   SCALAPACK package :  Parallel linear algebra routines


leaving
================================================================================
                                        WARNINGS
                       Please study these warnings very carefully!
================================================================================
Now building the actual basis set

WARNING: Direct SCF is incompatible with Method<>HF and Method<>DFT
  ===> : conventional SCF is chosen

WARNING: The NDO methods need Guess=HUECKEL or Guess=HCORE or Guess=MOREAD
  ===> : Guess is set to Hueckel

WARNING: The NDO methods need %rel::SOCType==1
  ===> : %rel::SOCType is set to 1

WARNING: The NDO methods cannot have frozencore=1
  ===> : %method FrozenCore=0 end
INFO   : Checking CIS options ...


INFO   : the flag for use of LIBINT has been found!

================================================================================
                                       INPUT FILE
================================================================================
NAME = ARUHCDRGLVIGLO-UHFFFAOYSA-N.inp
|  1> !RHF ZINDO/S TightSCF DIIS NoRICO NoMOPrint
|  2> %cis NRoots 10
|  3> MaxDim 25
|  4> triplets true
|  5> end
|  6> 
|  7> * xyz 0 1
|  8> N -1.83801 -2.05332 0.59653
|  9> C -2.36617 -0.85278 0.11971
| 10> C -3.76124 -0.72451 -0.02945
| 11> C -4.30270 0.47695 -0.46278
| 12> C -3.47602 1.55992 -0.76624
| 13> C -2.09799 1.43894 -0.62205
| 14> C -1.52651 0.24798 -0.16530
| 15> C -0.08640 0.17547 -0.00920
| 16> N 0.77423 0.64230 -0.98832
| 17> C 2.03448 0.45120 -0.53727
| 18> N 1.98609 -0.15438 0.75495
| 19> C 0.64693 -0.32068 1.08576
| 20> C 3.13281 -0.45958 1.45271
| 21> C 4.34756 -0.16597 0.88599
| 22> C 4.43126 0.44002 -0.40033
| 23> C 3.30048 0.74344 -1.10733
| 24> H -0.85878 -2.21100 0.45403
| 25> H -2.40772 -2.87282 0.54104
| 26> H -4.40721 -1.56519 0.19949
| 27> H -5.38292 0.57380 -0.57258
| 28> H -3.90627 2.49212 -1.11731
| 29> H -1.44254 2.27797 -0.87130
| 30> H 0.30667 -0.71734 2.01753
| 31> H 3.01862 -0.92364 2.43423
| 32> H 5.26879 -0.39409 1.41957
| 33> H 5.41849 0.65763 -0.80768
| 34> H 3.31996 1.20606 -2.09492
| 35> **                         ****END OF INPUT****
================================================================================

                       ****************************
                       * Single Point Calculation *
                       ****************************

---------------------------------
CARTESIAN COORDINATES (ANGSTROEM)
---------------------------------
  N     -1.838010   -2.053320    0.596530
  C     -2.366170   -0.852780    0.119710
  C     -3.761240   -0.724510   -0.029450
  C     -4.302700    0.476950   -0.462780
  C     -3.476020    1.559920   -0.766240
  C     -2.097990    1.438940   -0.622050
  C     -1.526510    0.247980   -0.165300
  C     -0.086400    0.175470   -0.009200
  N      0.774230    0.642300   -0.988320
  C      2.034480    0.451200   -0.537270
  N      1.986090   -0.154380    0.754950
  C      0.646930   -0.320680    1.085760
  C      3.132810   -0.459580    1.452710
  C      4.347560   -0.165970    0.885990
  C      4.431260    0.440020   -0.400330
  C      3.300480    0.743440   -1.107330
  H     -0.858780   -2.211000    0.454030
  H     -2.407720   -2.872820    0.541040
  H     -4.407210   -1.565190    0.199490
  H     -5.382920    0.573800   -0.572580
  H     -3.906270    2.492120   -1.117310
  H     -1.442540    2.277970   -0.871300
  H      0.306670   -0.717340    2.017530
  H      3.018620   -0.923640    2.434230
  H      5.268790   -0.394090    1.419570
  H      5.418490    0.657630   -0.807680
  H      3.319960    1.206060   -2.094920

----------------------------
CARTESIAN COORDINATES (A.U.)
----------------------------
  NO LB      ZA    FRAG    MASS        X           Y           Z
   0 N     5.0000    0    14.007         -3.473335531408599         -3.880212465303184          1.127278330668044
   1 C     4.0000    0    12.011         -4.471413286300447         -1.611520652485365          0.226219115491713
   2 C     4.0000    0    12.011         -7.107713523949968         -1.369125481287286         -0.055652434643981
   3 C     4.0000    0    12.011         -8.130924636422970          0.901304879573741         -0.874527460256077
   4 C     4.0000    0    12.011         -6.568725836032949          2.947821590826439         -1.447983752855820
   5 C     4.0000    0    12.011         -3.964626531705446          2.719202523144646         -1.175504141605715
   6 C     4.0000    0    12.011         -2.884685840692130          0.468614286689792         -0.312371729937183
   7 C     4.0000    0    12.011         -0.163272337970796          0.331590244719162         -0.017385480432076
   8 N     5.0000    0    14.007          1.463082664665851          1.213771095817620         -1.867654132677051
   9 C     4.0000    0    12.011          3.844610024940108          0.852644431625269         -1.015293159971871
  10 N     5.0000    0    14.007          3.753166177319659         -0.291735920554763          1.426648744803849
  11 C     4.0000    0    12.011          1.222520527817675         -0.605997376625867          2.051789047166338
  12 C     4.0000    0    12.011          5.920152929609837         -0.868480336627529          2.745224052008741
  13 C     4.0000    0    12.011          8.215697750790676         -0.313637846446910          1.674278457392890
  14 C     4.0000    0    12.011          8.373867828199886          0.831517293448029         -0.756514063192695
  15 C     4.0000    0    12.011          6.237003310484412          1.404897997002415         -2.092550439875020
  16 H     1.0000    0     1.008         -1.622859009288892         -4.178184482099887          0.857992356584266
  17 H     1.0000    0     1.008         -4.549931407164876         -5.428843032051650          1.022417427496754
  18 H     1.0000    0     1.008         -8.328419914679079         -2.957780447552204          0.376981466455950
  19 H     1.0000    0     1.008        -10.172244600807385          1.084324855644014         -1.082019389760630
  20 H     1.0000    0     1.008         -7.381780505152568          4.709424292867830         -2.111409906691554
  21 H     1.0000    0     1.008         -2.726005537226762          4.304739441288594         -1.646518380485587
  22 H     1.0000    0     1.008          0.579522313489630         -1.355576144907071          3.812579166970143
  23 H     1.0000    0     1.008          5.704365102377368         -1.745426646335025          4.600028046975128
  24 H     1.0000    0     1.008          9.956570157142952         -0.744722172117026          2.682598527930591
  25 H     1.0000    0     1.008         10.239462159390964          1.242740597450633         -1.526294003845516
  26 H     1.0000    0     1.008          6.273815175573199          2.279123101077065         -3.958825072474309

--------------------------------
INTERNAL COORDINATES (ANGSTROEM)
--------------------------------
 N      0   0   0   0.000000     0.000     0.000
 C      1   0   0   1.395567     0.000     0.000
 C      2   1   0   1.408873   119.291     0.000
 C      3   2   1   1.387249   119.895   177.999
 C      4   3   2   1.395819   120.578     0.634
 C      5   4   3   1.390825   119.787   359.422
 C      6   5   4   1.397711   120.871   359.460
 C      7   6   5   1.450359   118.931   181.028
 N      8   7   6   1.384662   121.614   314.005
 C      9   8   7   1.352108   107.204   179.121
 N     10   9   8   1.427901   109.284     0.200
 C     11  10   9   1.389403   107.391   359.617
 C     11  10   9   1.376584   121.635   180.140
 C     13  11  10   1.372223   118.728     0.252
 C     14  13  11   1.424377   121.065   359.853
 C     15  14  13   1.367690   120.839   359.865
 H      1   2   3   1.002028   117.170   163.392
 H      1   2   3   0.999614   118.073    19.408
 H      3   2   1   1.084635   119.790   358.264
 H      4   3   2   1.090097   119.682   180.281
 H      5   4   3   1.085063   120.137   179.179
 H      6   5   4   1.093486   120.233   179.125
 H     12  11  10   1.068322   123.993   182.496
 H     13  11  10   1.091683   117.571   180.142
 H     14  13  11   1.088766   120.119   179.762
 H     15  14  13   1.089913   118.404   179.784
 H     16  15  14   1.090748   123.187   180.086

---------------------------
INTERNAL COORDINATES (A.U.)
---------------------------
 N      0   0   0   0.000000     0.000     0.000
 C      1   0   0   2.637239     0.000     0.000
 C      2   1   0   2.662384   119.291     0.000
 C      3   2   1   2.621521   119.895   177.999
 C      4   3   2   2.637716   120.578     0.634
 C      5   4   3   2.628278   119.787   359.422
 C      6   5   4   2.641291   120.871   359.460
 C      7   6   5   2.740782   118.931   181.028
 N      8   7   6   2.616633   121.614   314.005
 C      9   8   7   2.555113   107.204   179.121
 N     10   9   8   2.698342   109.284     0.200
 C     11  10   9   2.625591   107.391   359.617
 C     11  10   9   2.601366   121.635   180.140
 C     13  11  10   2.593126   118.728     0.252
 C     14  13  11   2.691682   121.065   359.853
 C     15  14  13   2.584560   120.839   359.865
 H      1   2   3   1.893559   117.170   163.392
 H      1   2   3   1.888997   118.073    19.408
 H      3   2   1   2.049664   119.790   358.264
 H      4   3   2   2.059985   119.682   180.281
 H      5   4   3   2.050472   120.137   179.179
 H      6   5   4   2.066389   120.233   179.125
 H     12  11  10   2.018836   123.993   182.496
 H     13  11  10   2.062983   117.571   180.142
 H     14  13  11   2.057469   120.119   179.762
 H     15  14  13   2.059638   118.404   179.784
 H     16  15  14   2.061215   123.187   180.086

----------------------------
SLATER BASIS SET DIM=  75
----------------------------
  0 N     2 shells
 l=0 nsto= 1
    2       1.950000000000        1.000000000000
 l=1 nsto= 1
    2       1.950000000000        1.000000000000
  1 C     2 shells
 l=0 nsto= 1
    2       1.625000000000        1.000000000000
 l=1 nsto= 1
    2       1.625000000000        1.000000000000
  2 C     2 shells
 l=0 nsto= 1
    2       1.625000000000        1.000000000000
 l=1 nsto= 1
    2       1.625000000000        1.000000000000
  3 C     2 shells
 l=0 nsto= 1
    2       1.625000000000        1.000000000000
 l=1 nsto= 1
    2       1.625000000000        1.000000000000
  4 C     2 shells
 l=0 nsto= 1
    2       1.625000000000        1.000000000000
 l=1 nsto= 1
    2       1.625000000000        1.000000000000
  5 C     2 shells
 l=0 nsto= 1
    2       1.625000000000        1.000000000000
 l=1 nsto= 1
    2       1.625000000000        1.000000000000
  6 C     2 shells
 l=0 nsto= 1
    2       1.625000000000        1.000000000000
 l=1 nsto= 1
    2       1.625000000000        1.000000000000
  7 C     2 shells
 l=0 nsto= 1
    2       1.625000000000        1.000000000000
 l=1 nsto= 1
    2       1.625000000000        1.000000000000
  8 N     2 shells
 l=0 nsto= 1
    2       1.950000000000        1.000000000000
 l=1 nsto= 1
    2       1.950000000000        1.000000000000
  9 C     2 shells
 l=0 nsto= 1
    2       1.625000000000        1.000000000000
 l=1 nsto= 1
    2       1.625000000000        1.000000000000
 10 N     2 shells
 l=0 nsto= 1
    2       1.950000000000        1.000000000000
 l=1 nsto= 1
    2       1.950000000000        1.000000000000
 11 C     2 shells
 l=0 nsto= 1
    2       1.625000000000        1.000000000000
 l=1 nsto= 1
    2       1.625000000000        1.000000000000
 12 C     2 shells
 l=0 nsto= 1
    2       1.625000000000        1.000000000000
 l=1 nsto= 1
    2       1.625000000000        1.000000000000
 13 C     2 shells
 l=0 nsto= 1
    2       1.625000000000        1.000000000000
 l=1 nsto= 1
    2       1.625000000000        1.000000000000
 14 C     2 shells
 l=0 nsto= 1
    2       1.625000000000        1.000000000000
 l=1 nsto= 1
    2       1.625000000000        1.000000000000
 15 C     2 shells
 l=0 nsto= 1
    2       1.625000000000        1.000000000000
 l=1 nsto= 1
    2       1.625000000000        1.000000000000
 16 H     1 shells
 l=0 nsto= 1
    1       1.200000000000        1.000000000000
 17 H     1 shells
 l=0 nsto= 1
    1       1.200000000000        1.000000000000
 18 H     1 shells
 l=0 nsto= 1
    1       1.200000000000        1.000000000000
 19 H     1 shells
 l=0 nsto= 1
    1       1.200000000000        1.000000000000
 20 H     1 shells
 l=0 nsto= 1
    1       1.200000000000        1.000000000000
 21 H     1 shells
 l=0 nsto= 1
    1       1.200000000000        1.000000000000
 22 H     1 shells
 l=0 nsto= 1
    1       1.200000000000        1.000000000000
 23 H     1 shells
 l=0 nsto= 1
    1       1.200000000000        1.000000000000
 24 H     1 shells
 l=0 nsto= 1
    1       1.200000000000        1.000000000000
 25 H     1 shells
 l=0 nsto= 1
    1       1.200000000000        1.000000000000
 26 H     1 shells
 l=0 nsto= 1
    1       1.200000000000        1.000000000000
------------------------------------------------------------------------------
                           ORCA NDO INTEGRAL CALCULATION
------------------------------------------------------------------------------

--------------
NDO PARAMETERS
--------------

Gamma integral treatment              ... Mataga-Nishimoto
Nuclear repulsuion treatment          ... Direct (ZA*ZB/RAB)
Interaction factors:
s-s (sigma) =    1.0000
s-p (sigma) =    1.0000
s-d (sigma) =    1.0000
p-p (sigma) =    1.2670  p-p(pi) =    0.5850
p-d (sigma) =    1.0000  p-d(pi) =    1.0000
d-d (sigma) =    1.0000  d-d(pi) =    1.0000 d-d (delta) =    1.0000

fGamma parameter for Mataga-Nishimoto gamma integrals:    1.2000

--------------------------
Parameters for Element H :
--------------------------
 One-electron parameters (in eV)
  U(s)  =   -13.060000 Beta(s) =    12.000000 Neff(s) =     1.000000
 One-center electron repulsion parameters (in eV)
  G(s,s)=    12.850000
--------------------------
Parameters for Element C :
--------------------------
 One-electron parameters (in eV)
  U(s)  =   -50.870766 Beta(s) =    17.000000 Neff(s) =     2.000000
  U(p)  =   -41.599980 Beta(p) =    17.000000 Neff(p) =     2.000000 
 One-center electron repulsion parameters (in eV)
  G(s,s)=    11.110000
  G(s,p)=    11.110000 G(p,p)  =    11.110000
 Slater-Condon parameters (in eV)
 F2(p,p)=     4.5098 G1(s,p)=    6.8977
--------------------------
Parameters for Element N :
--------------------------
 One-electron parameters (in eV)
  U(s)  =   -69.250864 Beta(s) =    26.000000 Neff(s) =     2.000000
  U(p)  =   -58.070401 Beta(p) =    26.000000 Neff(p) =     3.000000 
 One-center electron repulsion parameters (in eV)
  G(s,s)=    12.010000
  G(s,p)=    12.010000 G(p,p)  =    12.010000
 Slater-Condon parameters (in eV)
 F2(p,p)=     6.4594 G1(s,p)=    8.9583

 Number of atoms                    ....   27
 Number of basis functions          ....   75

 Overlap integrals                  .... done
 One electron matrix                .... done
 Nuclear repulsion                  .... done
 Integral list                      .... done
 Electron-electron repulsion        .... done
-------------------------------------------------------------------------------
                                 ORCA SCF
-------------------------------------------------------------------------------

------------
SCF SETTINGS
------------
Hamiltonian:
 ZDO-Hamiltonian        Method          .... INDO


General Settings:
 Integral files         IntName         .... ARUHCDRGLVIGLO-UHFFFAOYSA-N
 Hartree-Fock type      HFTyp           .... RHF
 Total Charge           Charge          ....    0
 Multiplicity           Mult            ....    1
 Number of Electrons    NEL             ....   78
 Basis Dimension        Dim             ....   75
 Nuclear Repulsion      ENuc            ....    489.5132157189 Eh

Convergence Acceleration:
 DIIS                   CNVDIIS         .... on
   Start iteration      DIISMaxIt       ....    12
   Startup error        DIISStart       ....  0.200000
   # of expansion vecs  DIISMaxEq       ....     5
   Bias factor          DIISBfac        ....   1.050
   Max. coefficient     DIISMaxC        ....  10.000
 Newton-Raphson         CNVNR           .... off
 SOSCF                  CNVSOSCF        .... on
   Start iteration      SOSCFMaxIt      ....   150
   Startup grad/error   SOSCFStart      ....  0.003300
 Level Shifting         CNVShift        .... on
   Level shift para.    LevelShift      ....    0.2500
   Turn off err/grad.   ShiftErr        ....    0.0010
 Zerner damping         CNVZerner       .... off
 Static damping         CNVDamp         .... on
   Fraction old density DampFac         ....    0.7000
   Max. Damping (<1)    DampMax         ....    0.9800
   Min. Damping (>=0)   DampMin         ....    0.0000
   Turn off err/grad.   DampErr         ....    0.1000
 Fernandez-Rico         CNVRico         .... off

SCF Procedure:
 Maximum # iterations   MaxIter         ....   125
 SCF integral mode      SCFMode         .... Conventional
 Integral Buffer length BufferLength    .... 1048576
 Integral index format  IndFormat       ....     0
 Integral value format  ValFormat       ....     0
 Integral Storage       Thresh          ....  2.500e-11 Eh

Convergence Tolerance:
 Convergence Check Mode ConvCheckMode   .... Total+1el-Energy
 Energy Change          TolE            ....  1.000e-08 Eh
 1-El. energy change                    ....  1.000e-05 Eh
 Orbital Gradient       TolG            ....  1.000e-05
 Orbital Rotation angle TolX            ....  1.000e-05
 DIIS Error             TolErr          ....  5.000e-07


Diagonalization of the overlap matrix:
Smallest eigenvalue                        ... 1.485e-01
Time for diagonalization                   ...    0.001 sec
Threshold for overlap eigenvalues          ... 1.000e-08
Number of eigenvalues below threshold      ... 0
Time for construction of square roots      ...    0.000 sec
Total time needed                          ...    0.001 sec

-------------------------------
INITIAL GUESS: EXTENDED HUECKEL
-------------------------------
EHT matrix was read from disk
EHT matrix was diagonalized
Initial density was built
                      ------------------
                      INITIAL GUESS DONE
                      ------------------

 InCore treatment chosen:
   Memory dedicated               ...    1024 MB
   Memory needed                  ...      0 MB
   Number of tiny    integrals    ...       0
   Number of small   integrals    ...       0
   Number of regular integrals    ...    2946

--------------
SCF ITERATIONS
--------------
ITER       Energy         Delta-E        Max-DP      RMS-DP      [F,P]     Damp
  0     12.1767260337   0.000000000000 0.03718487  0.00162084  0.1015261 0.7000
  1     12.1556852856  -0.021040748055 0.03773034  0.00153077  0.0708428 0.7000
                               ***Turning on DIIS***
  2     12.1405106758  -0.015174609768 0.09462694  0.00386024  0.0448068 0.0000
  3     12.0800324641  -0.060478211772 0.01834057  0.00082682  0.0218335 0.0000
  4     12.1116476670   0.031615202922 0.00708978  0.00046330  0.0033130 0.0000
                      *** Initiating the SOSCF procedure ***
                           *** Shutting down DIIS ***
                      *** Re-Reading the Fockian *** 
                      *** Removing any level shift *** 
ITER      Energy       Delta-E        Grad      Rot      Max-DP    RMS-DP
  5     12.10375762  -0.0078900514  0.002294  0.002294  0.005438  0.000289
  6     12.10334982  -0.0004077983  0.001363  0.004545  0.005558  0.000275
  7     12.10324615  -0.0001036651  0.000712  0.005786  0.007991  0.000369
  8     12.10319507  -0.0000510851  0.000166  0.000558  0.000653  0.000038
  9     12.10319337  -0.0000016934  0.000095  0.000306  0.000580  0.000020
 10     12.10319292  -0.0000004581  0.000032  0.000193  0.000301  0.000011
 11     12.10319285  -0.0000000654  0.000009  0.000030  0.000069  0.000002
                  ***Gradient check signals convergence***
              ***Rediagonalizing the Fockian in SOSCF/NRSCF***

               *****************************************************
               *                     SUCCESS                       *
               *           SCF CONVERGED AFTER  12 CYCLES          *
               *****************************************************


----------------
TOTAL SCF ENERGY
----------------

Total Energy       :           12.10319285 Eh             329.34462 eV

Components:
Nuclear Repulsion  :          489.51321572 Eh           13320.33179 eV
Electronic Energy  :         -477.41002287 Eh          -12990.98717 eV

One Electron Energy:         -894.16887845 Eh          -24331.57218 eV
Two Electron Energy:          416.75885558 Eh           11340.58500 eV


---------------
SCF CONVERGENCE
---------------

  Last Energy change         ...   -4.0118e-09  Tolerance :   1.0000e-08
  Last MAX-Density change    ...    1.1833e-05  Tolerance :   1.0000e-07
  Last RMS-Density change    ...    7.1437e-07  Tolerance :   5.0000e-09
  Last Orbital Gradient      ...    2.2759e-06  Tolerance :   1.0000e-05
  Last Orbital Rotation      ...    7.8114e-06  Tolerance :   1.0000e-05

             **** THE GBW FILE WAS UPDATED (ARUHCDRGLVIGLO-UHFFFAOYSA-N.gbw) ****
             **** DENSITY FILE WAS UPDATED (ARUHCDRGLVIGLO-UHFFFAOYSA-N.scfp.tmp) ****
             **** ENERGY FILE WAS UPDATED (ARUHCDRGLVIGLO-UHFFFAOYSA-N.en.tmp) ****
----------------
ORBITAL ENERGIES
----------------

  NO   OCC          E(Eh)            E(eV) 
   0   2.0000      -1.827092       -49.7177 
   1   2.0000      -1.646569       -44.8054 
   2   2.0000      -1.543336       -41.9963 
   3   2.0000      -1.463940       -39.8358 
   4   2.0000      -1.345898       -36.6237 
   5   2.0000      -1.277773       -34.7700 
   6   2.0000      -1.156119       -31.4596 
   7   2.0000      -1.129029       -30.7224 
   8   2.0000      -1.109620       -30.1943 
   9   2.0000      -1.015245       -27.6262 
  10   2.0000      -0.969895       -26.3922 
  11   2.0000      -0.968349       -26.3501 
  12   2.0000      -0.891677       -24.2638 
  13   2.0000      -0.868372       -23.6296 
  14   2.0000      -0.798184       -21.7197 
  15   2.0000      -0.775230       -21.0951 
  16   2.0000      -0.743155       -20.2223 
  17   2.0000      -0.682913       -18.5830 
  18   2.0000      -0.681402       -18.5419 
  19   2.0000      -0.633251       -17.2316 
  20   2.0000      -0.614108       -16.7107 
  21   2.0000      -0.602859       -16.4046 
  22   2.0000      -0.591522       -16.0961 
  23   2.0000      -0.571135       -15.5414 
  24   2.0000      -0.570190       -15.5157 
  25   2.0000      -0.534679       -14.5493 
  26   2.0000      -0.521721       -14.1968 
  27   2.0000      -0.507903       -13.8207 
  28   2.0000      -0.485879       -13.2214 
  29   2.0000      -0.466768       -12.7014 
  30   2.0000      -0.441872       -12.0240 
  31   2.0000      -0.436744       -11.8844 
  32   2.0000      -0.422975       -11.5097 
  33   2.0000      -0.420096       -11.4314 
  34   2.0000      -0.388061       -10.5597 
  35   2.0000      -0.339759        -9.2453 
  36   2.0000      -0.311957        -8.4888 
  37   2.0000      -0.295153        -8.0315 
  38   2.0000      -0.275142        -7.4870 
  39   0.0000      -0.011205        -0.3049 
  40   0.0000       0.013850         0.3769 
  41   0.0000       0.030350         0.8259 
  42   0.0000       0.034708         0.9445 
  43   0.0000       0.073866         2.0100 
  44   0.0000       0.091308         2.4846 
  45   0.0000       0.091911         2.5010 
  46   0.0000       0.100371         2.7312 
  47   0.0000       0.119835         3.2609 
  48   0.0000       0.121176         3.2974 
  49   0.0000       0.126737         3.4487 
  50   0.0000       0.139330         3.7914 
  51   0.0000       0.147622         4.0170 
  52   0.0000       0.156308         4.2534 
  53   0.0000       0.186026         5.0620 
  54   0.0000       0.192012         5.2249 
  55   0.0000       0.208719         5.6795 
  56   0.0000       0.212671         5.7871 
  57   0.0000       0.216344         5.8870 
  58   0.0000       0.241919         6.5830 
  59   0.0000       0.248849         6.7715 
  60   0.0000       0.293649         7.9906 
  61   0.0000       0.301674         8.2090 
  62   0.0000       0.304943         8.2979 
  63   0.0000       0.323335         8.7984 
  64   0.0000       0.345099         9.3906 
  65   0.0000       0.364880         9.9289 
  66   0.0000       0.381390        10.3782 
  67   0.0000       0.401489        10.9251 
  68   0.0000       0.417533        11.3617 
  69   0.0000       0.424076        11.5397 
  70   0.0000       0.450368        12.2551 
  71   0.0000       0.465522        12.6675 
  72   0.0000       0.475975        12.9519 
  73   0.0000       0.485373        13.2077 
  74   0.0000       0.548629        14.9290 

                    ********************************
                    * MULLIKEN POPULATION ANALYSIS *
                    ********************************

-----------------------
MULLIKEN ATOMIC CHARGES
-----------------------
   0 N :   -0.523884
   1 C :    0.137656
   2 C :   -0.092924
   3 C :   -0.072158
   4 C :   -0.089121
   5 C :   -0.064865
   6 C :    0.016790
   7 C :    0.151003
   8 N :   -0.505713
   9 C :    0.286440
  10 N :   -0.217728
  11 C :   -0.052808
  12 C :    0.055812
  13 C :   -0.082993
  14 C :   -0.055841
  15 C :   -0.060084
  16 H :    0.219885
  17 H :    0.214112
  18 H :    0.068909
  19 H :    0.068443
  20 H :    0.068964
  21 H :    0.081506
  22 H :    0.098171
  23 H :    0.102705
  24 H :    0.075669
  25 H :    0.080619
  26 H :    0.091434
Sum of atomic charges:   -0.0000000


                     *******************************
                     * LOEWDIN POPULATION ANALYSIS *
                     *******************************

----------------------
LOEWDIN ATOMIC CHARGES
----------------------
   0 N :   -0.342121
   1 C :    0.103305
   2 C :   -0.062304
   3 C :   -0.030623
   4 C :   -0.055279
   5 C :   -0.021874
   6 C :    0.006951
   7 C :    0.117050
   8 N :   -0.436186
   9 C :    0.207419
  10 N :   -0.031912
  11 C :   -0.077095
  12 C :    0.053023
  13 C :   -0.056467
  14 C :   -0.009652
  15 C :   -0.029814
  16 H :    0.152915
  17 H :    0.147853
  18 H :    0.030418
  19 H :    0.029861
  20 H :    0.030221
  21 H :    0.039386
  22 H :    0.055774
  23 H :    0.056688
  24 H :    0.035709
  25 H :    0.038960
  26 H :    0.047794

-------------------------------
LOEWDIN REDUCED ORBITAL CHARGES
-------------------------------
  0 N s       :     1.292863  s :     1.292863
      pz      :     1.813762  p :     4.049259
      px      :     1.113391
      py      :     1.122106
  1 C s       :     1.042806  s :     1.042806
      pz      :     0.956083  p :     2.853890
      px      :     0.978622
      py      :     0.919185
  2 C s       :     1.084903  s :     1.084903
      pz      :     1.051655  p :     2.977401
      px      :     0.955890
      py      :     0.969856
  3 C s       :     1.088763  s :     1.088763
      pz      :     0.992777  p :     2.941860
      px      :     0.951211
      py      :     0.997872
  4 C s       :     1.085507  s :     1.085507
      pz      :     1.022683  p :     2.969772
      px      :     0.986428
      py      :     0.960660
  5 C s       :     1.091788  s :     1.091788
      pz      :     0.983189  p :     2.930086
      px      :     0.975666
      py      :     0.971232
  6 C s       :     1.043826  s :     1.043826
      pz      :     1.032563  p :     2.949222
      px      :     0.945827
      py      :     0.970833
  7 C s       :     1.063863  s :     1.063863
      pz      :     0.967437  p :     2.819087
      px      :     0.929782
      py      :     0.921868
  8 N s       :     1.614635  s :     1.614635
      pz      :     1.369316  p :     3.821551
      px      :     1.078376
      py      :     1.373859
  9 C s       :     1.059722  s :     1.059722
      pz      :     0.876794  p :     2.732859
      px      :     0.945669
      py      :     0.910396
 10 N s       :     1.220852  s :     1.220852
      pz      :     1.214468  p :     3.811061
      px      :     1.121485
      py      :     1.475108
 11 C s       :     1.088263  s :     1.088263
      pz      :     0.974205  p :     2.988831
      px      :     0.862274
      py      :     1.152353
 12 C s       :     1.085701  s :     1.085701
      pz      :     0.943599  p :     2.861276
      px      :     0.928323
      py      :     0.989354
 13 C s       :     1.082980  s :     1.082980
      pz      :     0.987040  p :     2.973487
      px      :     0.950863
      py      :     1.035584
 14 C s       :     1.089743  s :     1.089743
      pz      :     0.983883  p :     2.919910
      px      :     0.967102
      py      :     0.968925
 15 C s       :     1.081405  s :     1.081405
      pz      :     0.965451  p :     2.948409
      px      :     0.966385
      py      :     1.016573
 16 H s       :     0.847085  s :     0.847085
 17 H s       :     0.852147  s :     0.852147
 18 H s       :     0.969582  s :     0.969582
 19 H s       :     0.970139  s :     0.970139
 20 H s       :     0.969779  s :     0.969779
 21 H s       :     0.960614  s :     0.960614
 22 H s       :     0.944226  s :     0.944226
 23 H s       :     0.943312  s :     0.943312
 24 H s       :     0.964291  s :     0.964291
 25 H s       :     0.961040  s :     0.961040
 26 H s       :     0.952206  s :     0.952206


                      *****************************
                      * MAYER POPULATION ANALYSIS *
                      *****************************

  NA   - Mulliken gross atomic population
  ZA   - Total nuclear charge
  QA   - Mulliken gross atomic charge
  VA   - Mayer's total valence
  BVA  - Mayer's bonded valence
  FA   - Mayer's free valence

  ATOM       NA         ZA         QA         VA         BVA        FA
  0 N      5.5239     5.0000    -0.5239     2.9366     2.9366     0.0000
  1 C      3.8623     4.0000     0.1377     3.9193     3.9193     0.0000
  2 C      4.0929     4.0000    -0.0929     3.8879     3.8879     0.0000
  3 C      4.0722     4.0000    -0.0722     3.8974     3.8974     0.0000
  4 C      4.0891     4.0000    -0.0891     3.8947     3.8947     0.0000
  5 C      4.0649     4.0000    -0.0649     3.8930     3.8930     0.0000
  6 C      3.9832     4.0000     0.0168     3.9256     3.9256     0.0000
  7 C      3.8490     4.0000     0.1510     3.9199     3.9199    -0.0000
  8 N      5.5057     5.0000    -0.5057     2.8449     2.8449     0.0000
  9 C      3.7136     4.0000     0.2864     3.8870     3.8870    -0.0000
 10 N      5.2177     5.0000    -0.2177     3.4717     3.4717    -0.0000
 11 C      4.0528     4.0000    -0.0528     3.7904     3.7904    -0.0000
 12 C      3.9442     4.0000     0.0558     3.8616     3.8616     0.0000
 13 C      4.0830     4.0000    -0.0830     3.8914     3.8914    -0.0000
 14 C      4.0558     4.0000    -0.0558     3.8961     3.8961    -0.0000
 15 C      4.0601     4.0000    -0.0601     3.8868     3.8868    -0.0000
 16 H      0.7801     1.0000     0.2199     0.9517     0.9517     0.0000
 17 H      0.7859     1.0000     0.2141     0.9542     0.9542     0.0000
 18 H      0.9311     1.0000     0.0689     0.9953     0.9953     0.0000
 19 H      0.9316     1.0000     0.0684     0.9953     0.9953     0.0000
 20 H      0.9310     1.0000     0.0690     0.9952     0.9952     0.0000
 21 H      0.9185     1.0000     0.0815     0.9934     0.9934     0.0000
 22 H      0.9018     1.0000     0.0982     0.9904     0.9904    -0.0000
 23 H      0.8973     1.0000     0.1027     0.9895     0.9895    -0.0000
 24 H      0.9243     1.0000     0.0757     0.9943     0.9943    -0.0000
 25 H      0.9194     1.0000     0.0806     0.9935     0.9935    -0.0000
 26 H      0.9086     1.0000     0.0914     0.9916     0.9916     0.0000

  Mayer bond orders larger than 0.1
B(  0-N ,  1-C ) :   1.0151 B(  0-N , 16-H ) :   0.9131 B(  0-N , 17-H ) :   0.9188 
B(  1-C ,  2-C ) :   1.3567 B(  1-C ,  4-C ) :   0.1051 B(  1-C ,  6-C ) :   1.3432 
B(  2-C ,  3-C ) :   1.4034 B(  2-C ,  5-C ) :   0.1056 B(  2-C , 18-H ) :   0.9473 
B(  3-C ,  4-C ) :   1.3739 B(  3-C ,  6-C ) :   0.1054 B(  3-C , 19-H ) :   0.9474 
B(  4-C ,  5-C ) :   1.3957 B(  4-C , 20-H ) :   0.9466 B(  5-C ,  6-C ) :   1.3692 
B(  5-C , 21-H ) :   0.9446 B(  6-C ,  7-C ) :   0.9967 B(  7-C ,  8-N ) :   1.2366 
B(  7-C , 11-C ) :   1.5348 B(  8-N ,  9-C ) :   1.4027 B(  9-C , 10-N ) :   1.1175 
B(  9-C , 15-C ) :   1.1772 B( 10-N , 11-C ) :   1.0655 B( 10-N , 12-C ) :   1.0920 
B( 11-C , 22-H ) :   0.9327 B( 12-C , 13-C ) :   1.6058 B( 12-C , 15-C ) :   0.1096 
B( 12-C , 23-H ) :   0.9447 B( 13-C , 14-C ) :   1.1968 B( 13-C , 24-H ) :   0.9465 
B( 14-C , 15-C ) :   1.5771 B( 14-C , 25-H ) :   0.9469 B( 15-C , 26-H ) :   0.9444 


-------
TIMINGS
-------

Total SCF time: 0 days 0 hours 0 min 0 sec 

Total time                  ....       0.056 sec
Sum of individual times     ....       0.049 sec  ( 86.2%)

Fock matrix formation       ....       0.033 sec  ( 58.3%)
Diagonalization             ....       0.005 sec  (  9.1%)
Density matrix formation    ....       0.001 sec  (  1.7%)
Population analysis         ....       0.004 sec  (  6.3%)
Initial guess               ....       0.001 sec  (  1.3%)
Orbital Transformation      ....       0.000 sec  (  0.0%)
Orbital Orthonormalization  ....       0.000 sec  (  0.0%)
DIIS solution               ....       0.001 sec  (  2.4%)
SOSCF solution              ....       0.004 sec  (  7.0%)
------------------------------------------------------------------------------
                         ORCA CIS CALCULATION
------------------------------------------------------------------------------

Input orbitals are from        ... ARUHCDRGLVIGLO-UHFFFAOYSA-N.gbw
CI-vector output               ... ARUHCDRGLVIGLO-UHFFFAOYSA-N.cis
Tamm-Dancoff approximation     ... operative
CIS-Integral strategy          ... AO-integrals
Integral handling              ... AO integral Conventional
Reference state                ... RHF
Generation of triplets         ... on
Number of operators            ... 1
Orbital ranges used for CIS calculation:
 Operator 0:  Orbitals   0... 38  to  39... 74
XAS localization array:
 Operator 0:  Orbitals  -1... -1
-------------------
XC-INTEGRATION GRID
-------------------

General Integration Accuracy     IntAcc      ...  3.670
Radial Grid Type                 RadialGrid  ... Gauss-Chebyshev
Angular Grid (max. acc.)         AngularGrid ... Lebedev-50
Angular grid pruning method      GridPruning ... 3 (G Style)
Weight generation scheme         WeightScheme... Becke
Basis function cutoff            BFCut       ...    1.0000e-11
Integration weight cutoff        WCut        ...    1.0000e-14
Grids for H and He will be reduced by one unit

# of grid points (after initial pruning)     ...  16092 (   0.0 sec)
# of grid points (after weights+screening)   ...  14781 (   0.1 sec)
nearest neighbour list constructed           ...    0.0 sec
Grid point re-assignment to atoms done       ...    0.0 sec
Grid point division into batches done        ...    0.0 sec
Reduced shell lists constructed in    0.2 sec

Total number of grid points                  ...    14781
Total number of batches                      ...      242
Average number of points per batch           ...       61
Average number of grid points per atom       ...      547
Average number of shells per batch           ...    34.49 (80.20%)
Average number of basis functions per batch  ...    59.77 (79.69%)
Average number of large shells per batch     ...    25.26 (73.23%)
Average number of large basis fcns per batch ...    44.39 (74.27%)
Maximum spatial batch extension              ...  18.45, 18.75, 18.58 au
Average spatial batch extension              ...   4.01,  4.74,  4.76 au



------------------------
DAVIDSON-DIAGONALIZATION
------------------------

Dimension of the eigenvalue problem            ...   1404
Number of roots to be determined               ...     10
Maximum size of the expansion space            ...     25
Convergence tolerance for the residual         ...    2.500e-07
Convergence tolerance for the energies         ...    2.500e-07
Orthogonality tolerance                        ...    1.000e-14
Level Shift                                    ...    0.000e+00
Constructing the preconditioner                ... o.k.
Building the initial guess                     ... o.k.
Number of trial vectors determined             ...     20


                       ****Iteration    0****

   Memory handling for direct AO based CIS:
   Memory per vector needed      ...     1 MB
   Memory needed                 ...     3 MB
   Memory available              ...   512 MB
   Number of vectors per batch   ...   512
   Number of batches             ...     1
   Time for densities:     0.004
   Time for J+K (Conventional):     0.004
   Time for Sigma-Completion:     0.006
   Size of expansion space: 20
   Lowest Energy          :     0.135029290934
   Maximum Energy change  :     0.214213778957 (vector 9)
   Maximum residual norm  :     0.009373974894
   Rebuilding the expansion space

                       ****Iteration    1****
   Time for densities:     0.004
   Time for J+K (Conventional):     0.005
   Time for Sigma-Completion:     0.008
   Size of expansion space: 20
   Lowest Energy          :     0.129093596294
   Maximum Energy change  :     0.012897510958 (vector 6)
   Maximum residual norm  :     0.000374209257
   Rebuilding the expansion space

                       ****Iteration    2****
   Time for densities:     0.004
   Time for J+K (Conventional):     0.004
   Time for Sigma-Completion:     0.007
   Size of expansion space: 20
   Lowest Energy          :     0.128720972171
   Maximum Energy change  :     0.001574823228 (vector 8)
   Maximum residual norm  :     0.000437688427
   Rebuilding the expansion space

                       ****Iteration    3****
   Time for densities:     0.005
   Time for J+K (Conventional):     0.004
   Time for Sigma-Completion:     0.006
   Size of expansion space: 20
   Lowest Energy          :     0.128680273934
   Maximum Energy change  :     0.000837827836 (vector 9)
   Maximum residual norm  :     0.000170674655
   Rebuilding the expansion space

                       ****Iteration    4****
   Time for densities:     0.004
   Time for J+K (Conventional):     0.004
   Time for Sigma-Completion:     0.007
   Size of expansion space: 20
   Lowest Energy          :     0.128674001362
   Maximum Energy change  :     0.000682514094 (vector 7)
   Maximum residual norm  :     0.000269503785
   Rebuilding the expansion space

                       ****Iteration    5****
   Time for densities:     0.004
   Time for J+K (Conventional):     0.004
   Time for Sigma-Completion:     0.006
   Size of expansion space: 20
   Lowest Energy          :     0.128672802968
   Maximum Energy change  :     0.000679278790 (vector 7)
   Maximum residual norm  :     0.000177161852
   Rebuilding the expansion space

                       ****Iteration    6****
   Time for densities:     0.004
   Time for J+K (Conventional):     0.005
   Time for Sigma-Completion:     0.007
   Size of expansion space: 20
   Lowest Energy          :     0.128672521911
   Maximum Energy change  :     0.000706330351 (vector 7)
   Maximum residual norm  :     0.000288451860
   Rebuilding the expansion space

                       ****Iteration    7****
   Time for densities:     0.004
   Time for J+K (Conventional):     0.004
   Time for Sigma-Completion:     0.007
   Size of expansion space: 20
   Lowest Energy          :     0.128672444854
   Maximum Energy change  :     0.000729181185 (vector 7)
   Maximum residual norm  :     0.000187117463
   Rebuilding the expansion space

                       ****Iteration    8****
   Time for densities:     0.005
   Time for J+K (Conventional):     0.004
   Time for Sigma-Completion:     0.006
   Size of expansion space: 20
   Lowest Energy          :     0.128672421506
   Maximum Energy change  :     0.000752043145 (vector 7)
   Maximum residual norm  :     0.000297581899
   Rebuilding the expansion space

                       ****Iteration    9****
   Time for densities:     0.004
   Time for J+K (Conventional):     0.004
   Time for Sigma-Completion:     0.007
   Size of expansion space: 20
   Lowest Energy          :     0.128672413886
   Maximum Energy change  :     0.000739200686 (vector 7)
   Maximum residual norm  :     0.000182556106
   Rebuilding the expansion space

                       ****Iteration   10****
   Time for densities:     0.004
   Time for J+K (Conventional):     0.004
   Time for Sigma-Completion:     0.007
   Size of expansion space: 20
   Lowest Energy          :     0.128672411411
   Maximum Energy change  :     0.000712259916 (vector 7)
   Maximum residual norm  :     0.000271476888
   Rebuilding the expansion space

                       ****Iteration   11****
   Time for densities:     0.004
   Time for J+K (Conventional):     0.005
   Time for Sigma-Completion:     0.007
   Size of expansion space: 20
   Lowest Energy          :     0.128672410594
   Maximum Energy change  :     0.000638725323 (vector 7)
   Maximum residual norm  :     0.000153331187
   Rebuilding the expansion space

                       ****Iteration   12****
   Time for densities:     0.004
   Time for J+K (Conventional):     0.004
   Time for Sigma-Completion:     0.006
   Size of expansion space: 20
   Lowest Energy          :     0.128672410338
   Maximum Energy change  :     0.000550381809 (vector 7)
   Maximum residual norm  :     0.000198162438
   Rebuilding the expansion space

                       ****Iteration   13****
   Time for densities:     0.004
   Time for J+K (Conventional):     0.004
   Time for Sigma-Completion:     0.006
   Size of expansion space: 20
   Lowest Energy          :     0.128672410258
   Maximum Energy change  :     0.000432348026 (vector 7)
   Maximum residual norm  :     0.000096927322
   Rebuilding the expansion space

                       ****Iteration   14****
   Time for densities:     0.004
   Time for J+K (Conventional):     0.004
   Time for Sigma-Completion:     0.007
   Size of expansion space: 20
   Lowest Energy          :     0.128672410235
   Maximum Energy change  :     0.000317486826 (vector 7)
   Maximum residual norm  :     0.000100649950
   Rebuilding the expansion space

                       ****Iteration   15****
   Time for densities:     0.004
   Time for J+K (Conventional):     0.004
   Time for Sigma-Completion:     0.006
   Size of expansion space: 20
   Lowest Energy          :     0.128672410228
   Maximum Energy change  :     0.000216543987 (vector 7)
   Maximum residual norm  :     0.000044414169
   Rebuilding the expansion space

                       ****Iteration   16****
   Time for densities:     0.004
   Time for J+K (Conventional):     0.005
   Time for Sigma-Completion:     0.006
   Size of expansion space: 20
   Lowest Energy          :     0.128672410226
   Maximum Energy change  :     0.000203629853 (vector 9)
   Maximum residual norm  :     0.000098150610
   Rebuilding the expansion space

                       ****Iteration   17****
   Time for densities:     0.004
   Time for J+K (Conventional):     0.004
   Time for Sigma-Completion:     0.006
   Size of expansion space: 20
   Lowest Energy          :     0.128672410225
   Maximum Energy change  :     0.000197831140 (vector 9)
   Maximum residual norm  :     0.000036175112
   Rebuilding the expansion space

                       ****Iteration   18****
   Time for densities:     0.005
   Time for J+K (Conventional):     0.004
   Time for Sigma-Completion:     0.006
   Size of expansion space: 20
   Lowest Energy          :     0.128672410225
   Maximum Energy change  :     0.000200571665 (vector 9)
   Maximum residual norm  :     0.000099779108
   Rebuilding the expansion space

                       ****Iteration   19****
   Time for densities:     0.004
   Time for J+K (Conventional):     0.004
   Time for Sigma-Completion:     0.007
   Size of expansion space: 20
   Lowest Energy          :     0.128672410225
   Maximum Energy change  :     0.000194945682 (vector 9)
   Maximum residual norm  :     0.000032268906
   Rebuilding the expansion space

                       ****Iteration   20****
   Time for densities:     0.004
   Time for J+K (Conventional):     0.004
   Time for Sigma-Completion:     0.006
   Size of expansion space: 20
   Lowest Energy          :     0.128672410225
   Maximum Energy change  :     0.000195835415 (vector 9)
   Maximum residual norm  :     0.000098450799
   Rebuilding the expansion space

                       ****Iteration   21****
   Time for densities:     0.004
   Time for J+K (Conventional):     0.004
   Time for Sigma-Completion:     0.006
   Size of expansion space: 19
   Lowest Energy          :     0.128672410225
   Maximum Energy change  :     0.000186862278 (vector 9)
   Maximum residual norm  :     0.000029468620
   Rebuilding the expansion space

                       ****Iteration   22****
   Time for densities:     0.004
   Time for J+K (Conventional):     0.004
   Time for Sigma-Completion:     0.006
   Size of expansion space: 19
   Lowest Energy          :     0.128672410225
   Maximum Energy change  :     0.000186135062 (vector 9)
   Maximum residual norm  :     0.000097422528
   Rebuilding the expansion space

                       ****Iteration   23****
   Time for densities:     0.004
   Time for J+K (Conventional):     0.004
   Time for Sigma-Completion:     0.006
   Size of expansion space: 18
   Lowest Energy          :     0.128672410225
   Maximum Energy change  :     0.000171509555 (vector 9)
   Maximum residual norm  :     0.000023735282
   Rebuilding the expansion space

                       ****Iteration   24****
   Time for densities:     0.004
   Time for J+K (Conventional):     0.004
   Time for Sigma-Completion:     0.006
   Size of expansion space: 18
   Lowest Energy          :     0.128672410225
   Maximum Energy change  :     0.000167453610 (vector 9)
   Maximum residual norm  :     0.000092306830
   Rebuilding the expansion space

                       ****Iteration   25****
   Time for densities:     0.004
   Time for J+K (Conventional):     0.004
   Time for Sigma-Completion:     0.006
   Size of expansion space: 18
   Lowest Energy          :     0.128672410225
   Maximum Energy change  :     0.000155706080 (vector 9)
   Maximum residual norm  :     0.000021517173
   Rebuilding the expansion space

                       ****Iteration   26****
   Time for densities:     0.004
   Time for J+K (Conventional):     0.004
   Time for Sigma-Completion:     0.006
   Size of expansion space: 18
   Lowest Energy          :     0.128672410225
   Maximum Energy change  :     0.000136271672 (vector 9)
   Maximum residual norm  :     0.000071758686
   Rebuilding the expansion space

                       ****Iteration   27****
   Time for densities:     0.004
   Time for J+K (Conventional):     0.004
   Time for Sigma-Completion:     0.006
   Size of expansion space: 17
   Lowest Energy          :     0.128672410225
   Maximum Energy change  :     0.000126913342 (vector 9)
   Maximum residual norm  :     0.000020537286
   Rebuilding the expansion space

                       ****Iteration   28****
   Time for densities:     0.003
   Time for J+K (Conventional):     0.004
   Time for Sigma-Completion:     0.005
   Size of expansion space: 17
   Lowest Energy          :     0.128672410225
   Maximum Energy change  :     0.000106883105 (vector 9)
   Maximum residual norm  :     0.000049600646
   Rebuilding the expansion space

                       ****Iteration   29****
   Time for densities:     0.003
   Time for J+K (Conventional):     0.004
   Time for Sigma-Completion:     0.006
   Size of expansion space: 17
   Lowest Energy          :     0.128672410225
   Maximum Energy change  :     0.000098199257 (vector 9)
   Maximum residual norm  :     0.000018440118
   Rebuilding the expansion space

                       ****Iteration   30****
   Time for densities:     0.004
   Time for J+K (Conventional):     0.004
   Time for Sigma-Completion:     0.005
   Size of expansion space: 17
   Lowest Energy          :     0.128672410225
   Maximum Energy change  :     0.000096216684 (vector 9)
   Maximum residual norm  :     0.000044868611
   Rebuilding the expansion space

                       ****Iteration   31****
   Time for densities:     0.003
   Time for J+K (Conventional):     0.004
   Time for Sigma-Completion:     0.005
   Size of expansion space: 16
   Lowest Energy          :     0.128672410225
   Maximum Energy change  :     0.000088605096 (vector 9)
   Maximum residual norm  :     0.000016333756
   Rebuilding the expansion space

                       ****Iteration   32****
   Time for densities:     0.004
   Time for J+K (Conventional):     0.004
   Time for Sigma-Completion:     0.005
   Size of expansion space: 16
   Lowest Energy          :     0.128672410225
   Maximum Energy change  :     0.000088857255 (vector 9)
   Maximum residual norm  :     0.000044450043
   Rebuilding the expansion space

                       ****Iteration   33****
   Time for densities:     0.003
   Time for J+K (Conventional):     0.004
   Time for Sigma-Completion:     0.005
   Size of expansion space: 16
   Lowest Energy          :     0.128672410225
   Maximum Energy change  :     0.000082280745 (vector 9)
   Maximum residual norm  :     0.000013447748
   Rebuilding the expansion space

                       ****Iteration   34****
   Time for densities:     0.004
   Time for J+K (Conventional):     0.005
   Time for Sigma-Completion:     0.006
   Size of expansion space: 16
   Lowest Energy          :     0.128672410225
   Maximum Energy change  :     0.000081043475 (vector 9)
   Maximum residual norm  :     0.000043895824
   Rebuilding the expansion space

                       ****Iteration   35****
   Time for densities:     0.004
   Time for J+K (Conventional):     0.004
   Time for Sigma-Completion:     0.005
   Size of expansion space: 16
   Lowest Energy          :     0.128672410225
   Maximum Energy change  :     0.000074636465 (vector 9)
   Maximum residual norm  :     0.000010275526
   Rebuilding the expansion space

                       ****Iteration   36****
   Time for densities:     0.003
   Time for J+K (Conventional):     0.004
   Time for Sigma-Completion:     0.005
   Size of expansion space: 16
   Lowest Energy          :     0.128672410225
   Maximum Energy change  :     0.000071578163 (vector 9)
   Maximum residual norm  :     0.000041125844
   Rebuilding the expansion space

                       ****Iteration   37****
   Time for densities:     0.004
   Time for J+K (Conventional):     0.004
   Time for Sigma-Completion:     0.005
   Size of expansion space: 15
   Lowest Energy          :     0.128672410225
   Maximum Energy change  :     0.000065023230 (vector 9)
   Maximum residual norm  :     0.000007258290

                       ****Iteration   38****
   Time for densities:     0.001
   Time for J+K (Conventional):     0.003
   Time for Sigma-Completion:     0.002
   Size of expansion space: 20
   Lowest Energy          :     0.128672410225
   Maximum Energy change  :     0.000601154659 (vector 9)
   Maximum residual norm  :     0.000042388654
   Rebuilding the expansion space

                       ****Iteration   39****
   Time for densities:     0.003
   Time for J+K (Conventional):     0.005
   Time for Sigma-Completion:     0.006
   Size of expansion space: 15
   Lowest Energy          :     0.128672410225
   Maximum Energy change  :     0.000083724639 (vector 9)
   Maximum residual norm  :     0.000004159502

                       ****Iteration   40****
   Time for densities:     0.001
   Time for J+K (Conventional):     0.003
   Time for Sigma-Completion:     0.002
   Size of expansion space: 20
   Lowest Energy          :     0.128672410225
   Maximum Energy change  :     0.000009737569 (vector 9)
   Maximum residual norm  :     0.000000327081
   Rebuilding the expansion space

                       ****Iteration   41****
   Time for densities:     0.003
   Time for J+K (Conventional):     0.004
   Time for Sigma-Completion:     0.004
   Size of expansion space: 14
   Lowest Energy          :     0.128672410225
   Maximum Energy change  :     0.000001722406 (vector 9)
   Maximum residual norm  :     0.000000420944

                       ****Iteration   42****
   Time for densities:     0.001
   Time for J+K (Conventional):     0.003
   Time for Sigma-Completion:     0.002
   Size of expansion space: 18
   Lowest Energy          :     0.128672410225
   Maximum Energy change  :     0.000003408506 (vector 9)
   Maximum residual norm  :     0.000000801029
   Rebuilding the expansion space

                       ****Iteration   43****
   Time for densities:     0.003
   Time for J+K (Conventional):     0.004
   Time for Sigma-Completion:     0.005
   Size of expansion space: 14
   Lowest Energy          :     0.128672410225
   Maximum Energy change  :     0.000002088404 (vector 9)
   Maximum residual norm  :     0.000000216130

      *** CONVERGENCE OF RESIDUAL NORM REACHED ***

Storing the converged CI vectors               ... ARUHCDRGLVIGLO-UHFFFAOYSA-N.cis1

                 *** DAVIDSON DONE ***

Total time for solving the CIS problem:     0.939sec

-----------------------------
CIS-EXCITED STATES (SINGLETS)
-----------------------------

the weight of the individual excitations are printed if larger than 0.01

STATE  1:  E=   0.128672 au      3.501 eV    28240.3 cm**-1
    35a ->  39a  :     0.020262 (c=  0.14234377)
    35a ->  40a  :     0.011629 (c=  0.10783727)
    36a ->  40a  :     0.028579 (c=  0.16905292)
    37a ->  39a  :     0.078237 (c=  0.27970947)
    37a ->  40a  :     0.012623 (c= -0.11235057)
    37a ->  41a  :     0.013734 (c= -0.11719221)
    38a ->  39a  :     0.798635 (c= -0.89366363)

STATE  2:  E=   0.140570 au      3.825 eV    30851.5 cm**-1
    35a ->  39a  :     0.057818 (c= -0.24045337)
    36a ->  39a  :     0.220046 (c= -0.46909083)
    37a ->  39a  :     0.185335 (c=  0.43050512)
    37a ->  40a  :     0.053171 (c=  0.23058808)
    37a ->  41a  :     0.017590 (c=  0.13262869)
    38a ->  40a  :     0.397819 (c= -0.63072923)
    38a ->  41a  :     0.016748 (c= -0.12941256)
    38a ->  43a  :     0.010685 (c=  0.10336678)

STATE  3:  E=   0.153360 au      4.173 eV    33658.5 cm**-1
    35a ->  42a  :     0.079543 (c=  0.28203355)
    36a ->  39a  :     0.027385 (c= -0.16548449)
    36a ->  40a  :     0.013094 (c=  0.11442998)
    36a ->  41a  :     0.074602 (c= -0.27313422)
    36a ->  42a  :     0.031691 (c= -0.17801934)
    37a ->  40a  :     0.221410 (c=  0.47054208)
    37a ->  41a  :     0.136317 (c= -0.36921108)
    37a ->  42a  :     0.029417 (c=  0.17151274)
    38a ->  40a  :     0.054241 (c=  0.23289787)
    38a ->  41a  :     0.135952 (c= -0.36871653)
    38a ->  42a  :     0.156658 (c=  0.39580048)

STATE  4:  E=   0.164368 au      4.473 eV    36074.7 cm**-1
    35a ->  39a  :     0.023896 (c=  0.15458229)
    35a ->  41a  :     0.022940 (c=  0.15145848)
    36a ->  39a  :     0.014609 (c=  0.12086715)
    36a ->  40a  :     0.085635 (c=  0.29263510)
    36a ->  41a  :     0.023456 (c= -0.15315340)
    37a ->  40a  :     0.040976 (c= -0.20242410)
    37a ->  42a  :     0.150544 (c=  0.38799978)
    38a ->  40a  :     0.129969 (c= -0.36051223)
    38a ->  41a  :     0.203709 (c=  0.45134163)
    38a ->  42a  :     0.222081 (c=  0.47125500)

STATE  5:  E=   0.169054 au      4.600 eV    37103.0 cm**-1
    35a ->  39a  :     0.011363 (c=  0.10659505)
    36a ->  39a  :     0.153487 (c=  0.39177466)
    37a ->  39a  :     0.242854 (c= -0.49280268)
    37a ->  40a  :     0.013797 (c=  0.11746206)
    37a ->  41a  :     0.027359 (c=  0.16540657)
    38a ->  39a  :     0.015019 (c= -0.12255099)
    38a ->  40a  :     0.258111 (c= -0.50804645)
    38a ->  41a  :     0.201686 (c= -0.44909439)
    38a ->  45a  :     0.022067 (c=  0.14854979)

STATE  6:  E=   0.181609 au      4.942 eV    39858.6 cm**-1
    34a ->  39a  :     0.025585 (c=  0.15995299)
    35a ->  41a  :     0.048096 (c= -0.21930860)
    36a ->  40a  :     0.137851 (c= -0.37128230)
    36a ->  41a  :     0.027271 (c= -0.16513958)
    37a ->  39a  :     0.052051 (c= -0.22814710)
    37a ->  40a  :     0.216279 (c=  0.46505797)
    37a ->  43a  :     0.046473 (c= -0.21557499)
    38a ->  39a  :     0.067713 (c= -0.26021684)
    38a ->  41a  :     0.247510 (c=  0.49750414)
    38a ->  43a  :     0.036493 (c=  0.19103208)

STATE  7:  E=   0.185337 au      5.043 eV    40676.8 cm**-1
    34a ->  39a  :     0.321801 (c=  0.56727481)
    34a ->  40a  :     0.065256 (c=  0.25545249)
    34a ->  41a  :     0.078145 (c=  0.27954347)
    34a ->  43a  :     0.035079 (c=  0.18729338)
    34a ->  45a  :     0.066258 (c= -0.25740626)
    35a ->  39a  :     0.044514 (c= -0.21098371)
    36a ->  39a  :     0.060388 (c= -0.24573989)
    36a ->  40a  :     0.065638 (c=  0.25619857)
    36a ->  42a  :     0.018735 (c= -0.13687533)
    37a ->  39a  :     0.045255 (c= -0.21273206)
    37a ->  40a  :     0.066752 (c= -0.25836395)
    37a ->  41a  :     0.046058 (c= -0.21461055)
    37a ->  42a  :     0.029463 (c= -0.17164829)

STATE  8:  E=   0.186931 au      5.087 eV    41026.7 cm**-1
    34a ->  39a  :     0.100076 (c=  0.31634815)
    34a ->  40a  :     0.016725 (c=  0.12932383)
    34a ->  41a  :     0.023313 (c=  0.15268697)
    34a ->  43a  :     0.010973 (c=  0.10474999)
    34a ->  45a  :     0.021118 (c= -0.14531995)
    35a ->  40a  :     0.032944 (c= -0.18150485)
    35a ->  42a  :     0.015480 (c= -0.12441729)
    36a ->  40a  :     0.112329 (c= -0.33515449)
    36a ->  42a  :     0.121803 (c=  0.34900228)
    37a ->  41a  :     0.114374 (c=  0.33819248)
    37a ->  42a  :     0.192077 (c=  0.43826643)
    38a ->  40a  :     0.040121 (c=  0.20030205)
    38a ->  41a  :     0.030487 (c= -0.17460398)
    38a ->  42a  :     0.044692 (c=  0.21140408)
    38a ->  43a  :     0.040104 (c= -0.20026073)

STATE  9:  E=   0.195527 au      5.321 eV    42913.1 cm**-1
    34a ->  40a  :     0.011176 (c= -0.10571540)
    36a ->  39a  :     0.034331 (c= -0.18528586)
    36a ->  40a  :     0.031620 (c=  0.17782095)
    36a ->  42a  :     0.040610 (c=  0.20152045)
    37a ->  39a  :     0.031222 (c= -0.17669877)
    37a ->  40a  :     0.015215 (c=  0.12335042)
    37a ->  42a  :     0.020094 (c=  0.14175425)
    37a ->  44a  :     0.027794 (c=  0.16671536)
    38a ->  41a  :     0.011854 (c=  0.10887745)
    38a ->  42a  :     0.056583 (c= -0.23787263)
    38a ->  43a  :     0.274581 (c= -0.52400467)
    38a ->  44a  :     0.150536 (c= -0.38798918)
    38a ->  45a  :     0.023161 (c=  0.15218718)
    38a ->  46a  :     0.071560 (c= -0.26750739)
    38a ->  47a  :     0.037807 (c=  0.19444031)
    38a ->  49a  :     0.047568 (c=  0.21810065)

STATE 10:  E=   0.197990 au      5.388 eV    43453.7 cm**-1
    34a ->  39a  :     0.071693 (c=  0.26775498)
    34a ->  41a  :     0.018798 (c=  0.13710639)
    34a ->  43a  :     0.011738 (c=  0.10834252)
    34a ->  45a  :     0.014546 (c= -0.12060839)
    35a ->  39a  :     0.037389 (c=  0.19336251)
    35a ->  40a  :     0.019285 (c=  0.13887022)
    36a ->  39a  :     0.194088 (c=  0.44055470)
    36a ->  42a  :     0.011314 (c= -0.10636911)
    37a ->  39a  :     0.230637 (c=  0.48024728)
    37a ->  40a  :     0.029465 (c=  0.17165381)
    37a ->  42a  :     0.010506 (c= -0.10249918)
    37a ->  45a  :     0.010059 (c= -0.10029438)
    38a ->  39a  :     0.047359 (c=  0.21762155)
    38a ->  42a  :     0.012821 (c=  0.11323097)
    38a ->  44a  :     0.107351 (c= -0.32764416)
    38a ->  46a  :     0.047385 (c= -0.21768183)
    38a ->  49a  :     0.032560 (c=  0.18044409)


                  ********************************
                  * Entering triplet calculation *
                  ********************************

------------------------
DAVIDSON-DIAGONALIZATION
------------------------

Dimension of the eigenvalue problem            ...   1404
Number of roots to be determined               ...     10
Maximum size of the expansion space            ...     25
Convergence tolerance for the residual         ...    2.500e-07
Convergence tolerance for the energies         ...    2.500e-07
Orthogonality tolerance                        ...    1.000e-14
Level Shift                                    ...    0.000e+00
Constructing the preconditioner                ... o.k.
Building the initial guess                     ... o.k.
Number of trial vectors determined             ...     20


                       ****Iteration    0****
                <<< Triplet sigma vectors requested >>>

   Memory handling for direct AO based CIS:
   Memory per vector needed      ...     1 MB
   Memory needed                 ...     2 MB
   Memory available              ...   512 MB
   Number of vectors per batch   ...   512
   Number of batches             ...     1
   Time for densities:     0.004
   Time for K (Conventional):     0.004
   Time for Sigma-Completion:     0.007
   Size of expansion space: 20
   Lowest Energy          :     0.078534404706
   Maximum Energy change  :     0.194025174896 (vector 9)
   Maximum residual norm  :     0.005695103427
   Rebuilding the expansion space

                       ****Iteration    1****
   Time for densities:     0.004
   Time for K (Conventional):     0.004
   Time for Sigma-Completion:     0.007
   Size of expansion space: 20
   Lowest Energy          :     0.057334765452
   Maximum Energy change  :     0.022943968446 (vector 1)
   Maximum residual norm  :     0.000590237699
   Rebuilding the expansion space

                       ****Iteration    2****
   Time for densities:     0.004
   Time for K (Conventional):     0.004
   Time for Sigma-Completion:     0.007
   Size of expansion space: 20
   Lowest Energy          :     0.056636607250
   Maximum Energy change  :     0.007703698907 (vector 9)
   Maximum residual norm  :     0.000909630620
   Rebuilding the expansion space

                       ****Iteration    3****
   Time for densities:     0.004
   Time for K (Conventional):     0.004
   Time for Sigma-Completion:     0.006
   Size of expansion space: 20
   Lowest Energy          :     0.056583890730
   Maximum Energy change  :     0.008141742629 (vector 9)
   Maximum residual norm  :     0.000744122812
   Rebuilding the expansion space

                       ****Iteration    4****
   Time for densities:     0.004
   Time for K (Conventional):     0.004
   Time for Sigma-Completion:     0.006
   Size of expansion space: 20
   Lowest Energy          :     0.056577052647
   Maximum Energy change  :     0.005950832163 (vector 9)
   Maximum residual norm  :     0.000678126999
   Rebuilding the expansion space

                       ****Iteration    5****
   Time for densities:     0.004
   Time for K (Conventional):     0.005
   Time for Sigma-Completion:     0.006
   Size of expansion space: 20
   Lowest Energy          :     0.056575898854
   Maximum Energy change  :     0.003685519177 (vector 9)
   Maximum residual norm  :     0.000409448750
   Rebuilding the expansion space

                       ****Iteration    6****
   Time for densities:     0.004
   Time for K (Conventional):     0.004
   Time for Sigma-Completion:     0.007
   Size of expansion space: 20
   Lowest Energy          :     0.056575668103
   Maximum Energy change  :     0.001445385423 (vector 8)
   Maximum residual norm  :     0.000395982858
   Rebuilding the expansion space

                       ****Iteration    7****
   Time for densities:     0.004
   Time for K (Conventional):     0.004
   Time for Sigma-Completion:     0.007
   Size of expansion space: 20
   Lowest Energy          :     0.056575619746
   Maximum Energy change  :     0.001482584218 (vector 8)
   Maximum residual norm  :     0.000268126248
   Rebuilding the expansion space

                       ****Iteration    8****
   Time for densities:     0.005
   Time for K (Conventional):     0.004
   Time for Sigma-Completion:     0.007
   Size of expansion space: 20
   Lowest Energy          :     0.056575609296
   Maximum Energy change  :     0.001010995108 (vector 8)
   Maximum residual norm  :     0.000251789646
   Rebuilding the expansion space

                       ****Iteration    9****
   Time for densities:     0.004
   Time for K (Conventional):     0.003
   Time for Sigma-Completion:     0.007
   Size of expansion space: 20
   Lowest Energy          :     0.056575607035
   Maximum Energy change  :     0.000723875600 (vector 8)
   Maximum residual norm  :     0.000175905820
   Rebuilding the expansion space

                       ****Iteration   10****
   Time for densities:     0.004
   Time for K (Conventional):     0.004
   Time for Sigma-Completion:     0.006
   Size of expansion space: 20
   Lowest Energy          :     0.056575606554
   Maximum Energy change  :     0.000504675202 (vector 8)
   Maximum residual norm  :     0.000141011770
   Rebuilding the expansion space

                       ****Iteration   11****
   Time for densities:     0.004
   Time for K (Conventional):     0.004
   Time for Sigma-Completion:     0.007
   Size of expansion space: 20
   Lowest Energy          :     0.056575606446
   Maximum Energy change  :     0.000368406750 (vector 8)
   Maximum residual norm  :     0.000105631578
   Rebuilding the expansion space

                       ****Iteration   12****
   Time for densities:     0.004
   Time for K (Conventional):     0.003
   Time for Sigma-Completion:     0.006
   Size of expansion space: 20
   Lowest Energy          :     0.056575606423
   Maximum Energy change  :     0.000263198620 (vector 8)
   Maximum residual norm  :     0.000070007485
   Rebuilding the expansion space

                       ****Iteration   13****
   Time for densities:     0.004
   Time for K (Conventional):     0.004
   Time for Sigma-Completion:     0.007
   Size of expansion space: 20
   Lowest Energy          :     0.056575606418
   Maximum Energy change  :     0.000191280478 (vector 8)
   Maximum residual norm  :     0.000059835626
   Rebuilding the expansion space

                       ****Iteration   14****
   Time for densities:     0.004
   Time for K (Conventional):     0.003
   Time for Sigma-Completion:     0.006
   Size of expansion space: 20
   Lowest Energy          :     0.056575606417
   Maximum Energy change  :     0.000145613992 (vector 8)
   Maximum residual norm  :     0.000041378427
   Rebuilding the expansion space

                       ****Iteration   15****
   Time for densities:     0.005
   Time for K (Conventional):     0.004
   Time for Sigma-Completion:     0.006
   Size of expansion space: 20
   Lowest Energy          :     0.056575606417
   Maximum Energy change  :     0.000101746965 (vector 8)
   Maximum residual norm  :     0.000032262395
   Rebuilding the expansion space

                       ****Iteration   16****
   Time for densities:     0.004
   Time for K (Conventional):     0.003
   Time for Sigma-Completion:     0.006
   Size of expansion space: 20
   Lowest Energy          :     0.056575606417
   Maximum Energy change  :     0.000086429701 (vector 8)
   Maximum residual norm  :     0.000032406754
   Rebuilding the expansion space

                       ****Iteration   17****
   Time for densities:     0.004
   Time for K (Conventional):     0.004
   Time for Sigma-Completion:     0.006
   Size of expansion space: 20
   Lowest Energy          :     0.056575606417
   Maximum Energy change  :     0.000057724473 (vector 8)
   Maximum residual norm  :     0.000014920498
   Rebuilding the expansion space

                       ****Iteration   18****
   Time for densities:     0.004
   Time for K (Conventional):     0.003
   Time for Sigma-Completion:     0.006
   Size of expansion space: 18
   Lowest Energy          :     0.056575606417
   Maximum Energy change  :     0.000056960444 (vector 8)
   Maximum residual norm  :     0.000026572685
   Rebuilding the expansion space

                       ****Iteration   19****
   Time for densities:     0.004
   Time for K (Conventional):     0.005
   Time for Sigma-Completion:     0.007
   Size of expansion space: 17
   Lowest Energy          :     0.056575606417
   Maximum Energy change  :     0.000036002976 (vector 8)
   Maximum residual norm  :     0.000006395088
   Rebuilding the expansion space

                       ****Iteration   20****
   Time for densities:     0.003
   Time for K (Conventional):     0.004
   Time for Sigma-Completion:     0.005
   Size of expansion space: 17
   Lowest Energy          :     0.056575606417
   Maximum Energy change  :     0.000036660347 (vector 8)
   Maximum residual norm  :     0.000018342534
   Rebuilding the expansion space

                       ****Iteration   21****
   Time for densities:     0.003
   Time for K (Conventional):     0.004
   Time for Sigma-Completion:     0.006
   Size of expansion space: 17
   Lowest Energy          :     0.056575606417
   Maximum Energy change  :     0.000020499005 (vector 8)
   Maximum residual norm  :     0.000002653701
   Rebuilding the expansion space

                       ****Iteration   22****
   Time for densities:     0.003
   Time for K (Conventional):     0.004
   Time for Sigma-Completion:     0.005
   Size of expansion space: 17
   Lowest Energy          :     0.056575606417
   Maximum Energy change  :     0.000018101641 (vector 8)
   Maximum residual norm  :     0.000008520977
   Rebuilding the expansion space

                       ****Iteration   23****
   Time for densities:     0.003
   Time for K (Conventional):     0.004
   Time for Sigma-Completion:     0.006
   Size of expansion space: 17
   Lowest Energy          :     0.056575606417
   Maximum Energy change  :     0.000009046953 (vector 8)
   Maximum residual norm  :     0.000000991685
   Rebuilding the expansion space

                       ****Iteration   24****
   Time for densities:     0.003
   Time for K (Conventional):     0.003
   Time for Sigma-Completion:     0.005
   Size of expansion space: 17
   Lowest Energy          :     0.056575606417
   Maximum Energy change  :     0.000003919528 (vector 8)
   Maximum residual norm  :     0.000001528194
   Rebuilding the expansion space

                       ****Iteration   25****
   Time for densities:     0.004
   Time for K (Conventional):     0.004
   Time for Sigma-Completion:     0.006
   Size of expansion space: 16
   Lowest Energy          :     0.056575606417
   Maximum Energy change  :     0.000002354964 (vector 8)
   Maximum residual norm  :     0.000000419787
   Rebuilding the expansion space

                       ****Iteration   26****
   Time for densities:     0.003
   Time for K (Conventional):     0.003
   Time for Sigma-Completion:     0.005
   Size of expansion space: 16
   Lowest Energy          :     0.056575606417
   Maximum Energy change  :     0.000001386079 (vector 8)
   Maximum residual norm  :     0.000000668297
   Rebuilding the expansion space

                       ****Iteration   27****
   Time for densities:     0.003
   Time for K (Conventional):     0.004
   Time for Sigma-Completion:     0.005
   Size of expansion space: 15
   Lowest Energy          :     0.056575606417
   Maximum Energy change  :     0.000000982249 (vector 8)
   Maximum residual norm  :     0.000000192843

      *** CONVERGENCE OF RESIDUAL NORM REACHED ***

Storing the converged CI vectors               ... ARUHCDRGLVIGLO-UHFFFAOYSA-N.cis3

                 *** DAVIDSON DONE ***

-----------------------------
CIS EXCITED STATES (TRIPLETS)
-----------------------------

the weight of the individual excitations are printed if larger than 0.01

STATE  1:  E=   0.056576 au      1.540 eV    12416.9 cm**-1
    31a ->  41a  :     0.010218 (c=  0.10108523)
    31a ->  43a  :     0.016858 (c=  0.12983831)
    33a ->  39a  :     0.018691 (c=  0.13671384)
    33a ->  45a  :     0.018346 (c=  0.13544802)
    35a ->  40a  :     0.025821 (c= -0.16068836)
    35a ->  41a  :     0.017869 (c= -0.13367648)
    36a ->  39a  :     0.110556 (c=  0.33250010)
    36a ->  40a  :     0.027228 (c= -0.16501056)
    37a ->  39a  :     0.238794 (c= -0.48866571)
    38a ->  39a  :     0.247259 (c=  0.49725161)
    38a ->  40a  :     0.159535 (c=  0.39941789)
    38a ->  43a  :     0.033780 (c= -0.18379211)

STATE  2:  E=   0.070966 au      1.931 eV    15575.3 cm**-1
    33a ->  39a  :     0.011195 (c=  0.10580845)
    35a ->  39a  :     0.016767 (c=  0.12948669)
    35a ->  40a  :     0.017949 (c= -0.13397236)
    35a ->  41a  :     0.032406 (c=  0.18001628)
    35a ->  42a  :     0.010215 (c= -0.10106778)
    35a ->  43a  :     0.038002 (c= -0.19494136)
    36a ->  39a  :     0.030058 (c=  0.17337196)
    36a ->  41a  :     0.043701 (c= -0.20904787)
    36a ->  42a  :     0.078536 (c=  0.28024226)
    37a ->  39a  :     0.025873 (c= -0.16085229)
    37a ->  41a  :     0.048664 (c=  0.22059949)
    37a ->  42a  :     0.128142 (c=  0.35796876)
    37a ->  43a  :     0.011434 (c= -0.10692843)
    38a ->  39a  :     0.048507 (c=  0.22024329)
    38a ->  40a  :     0.256274 (c= -0.50623479)
    38a ->  41a  :     0.053309 (c=  0.23088736)
    38a ->  42a  :     0.037816 (c=  0.19446297)
    38a ->  43a  :     0.023988 (c=  0.15488143)

STATE  3:  E=   0.079291 au      2.158 eV    17402.4 cm**-1
    31a ->  40a  :     0.011078 (c= -0.10525261)
    33a ->  39a  :     0.012652 (c= -0.11247993)
    35a ->  39a  :     0.010537 (c= -0.10264939)
    35a ->  40a  :     0.044031 (c= -0.20983640)
    35a ->  41a  :     0.060997 (c=  0.24697482)
    36a ->  39a  :     0.051894 (c= -0.22780294)
    36a ->  42a  :     0.077444 (c=  0.27828850)
    36a ->  43a  :     0.018584 (c=  0.13632226)
    37a ->  39a  :     0.042371 (c=  0.20584172)
    37a ->  40a  :     0.107590 (c= -0.32800954)
    37a ->  42a  :     0.108566 (c=  0.32949353)
    38a ->  40a  :     0.150711 (c=  0.38821526)
    38a ->  41a  :     0.055306 (c=  0.23517271)
    38a ->  42a  :     0.018296 (c=  0.13526093)
    38a ->  43a  :     0.137122 (c= -0.37030007)

STATE  4:  E=   0.102642 au      2.793 eV    22527.4 cm**-1
    31a ->  39a  :     0.039217 (c=  0.19803182)
    35a ->  39a  :     0.085361 (c= -0.29216595)
    35a ->  40a  :     0.025032 (c=  0.15821414)
    35a ->  45a  :     0.011669 (c=  0.10802254)
    36a ->  39a  :     0.058113 (c= -0.24106563)
    36a ->  40a  :     0.058957 (c=  0.24281071)
    36a ->  41a  :     0.040918 (c=  0.20228261)
    36a ->  45a  :     0.012366 (c=  0.11120241)
    37a ->  40a  :     0.036720 (c= -0.19162385)
    37a ->  41a  :     0.057757 (c= -0.24032653)
    37a ->  42a  :     0.017184 (c= -0.13108907)
    37a ->  43a  :     0.032290 (c= -0.17969509)
    38a ->  39a  :     0.261491 (c=  0.51136192)
    38a ->  41a  :     0.050901 (c=  0.22561344)
    38a ->  43a  :     0.126247 (c=  0.35531246)

STATE  5:  E=   0.118558 au      3.226 eV    26020.5 cm**-1
    31a ->  39a  :     0.011269 (c=  0.10615505)
    33a ->  45a  :     0.012540 (c=  0.11198185)
    35a ->  39a  :     0.056789 (c=  0.23830527)
    35a ->  40a  :     0.051167 (c=  0.22620197)
    36a ->  39a  :     0.202447 (c=  0.44994067)
    36a ->  40a  :     0.151977 (c=  0.38984270)
    36a ->  41a  :     0.046527 (c=  0.21570004)
    36a ->  43a  :     0.014615 (c=  0.12089204)
    37a ->  39a  :     0.089974 (c= -0.29995628)
    37a ->  40a  :     0.054115 (c= -0.23262612)
    37a ->  41a  :     0.090804 (c= -0.30133626)
    38a ->  39a  :     0.118063 (c= -0.34360266)
    38a ->  45a  :     0.011055 (c=  0.10514450)

STATE  6:  E=   0.122181 au      3.325 eV    26815.6 cm**-1
    35a ->  39a  :     0.017303 (c=  0.13153938)
    35a ->  41a  :     0.015963 (c=  0.12634508)
    35a ->  42a  :     0.037001 (c=  0.19235540)
    36a ->  39a  :     0.024656 (c=  0.15702137)
    36a ->  41a  :     0.030984 (c=  0.17602288)
    36a ->  42a  :     0.130137 (c= -0.36074537)
    37a ->  40a  :     0.172438 (c= -0.41525650)
    37a ->  41a  :     0.165586 (c=  0.40692246)
    37a ->  42a  :     0.110042 (c= -0.33172529)
    37a ->  43a  :     0.013051 (c= -0.11424186)
    38a ->  40a  :     0.038311 (c= -0.19573183)
    38a ->  41a  :     0.150095 (c=  0.38742139)
    38a ->  43a  :     0.036216 (c= -0.19030411)

STATE  7:  E=   0.126360 au      3.438 eV    27732.9 cm**-1
    35a ->  40a  :     0.061179 (c= -0.24734356)
    35a ->  41a  :     0.090629 (c=  0.30104629)
    35a ->  42a  :     0.085433 (c= -0.29228863)
    36a ->  40a  :     0.077461 (c=  0.27831887)
    36a ->  41a  :     0.151216 (c= -0.38886477)
    36a ->  43a  :     0.013623 (c=  0.11671965)
    37a ->  40a  :     0.017574 (c=  0.13256753)
    37a ->  41a  :     0.029882 (c= -0.17286398)
    37a ->  42a  :     0.142712 (c= -0.37777178)
    38a ->  41a  :     0.016306 (c=  0.12769688)
    38a ->  42a  :     0.256500 (c= -0.50645848)

STATE  8:  E=   0.133301 au      3.627 eV    29256.3 cm**-1
    31a ->  39a  :     0.022584 (c=  0.15027931)
    31a ->  40a  :     0.023119 (c= -0.15204882)
    31a ->  41a  :     0.018780 (c= -0.13704006)
    33a ->  39a  :     0.137309 (c=  0.37055292)
    33a ->  40a  :     0.010872 (c=  0.10427112)
    35a ->  40a  :     0.015373 (c=  0.12398930)
    35a ->  41a  :     0.052910 (c=  0.23002206)
    35a ->  43a  :     0.012168 (c=  0.11030987)
    36a ->  40a  :     0.017805 (c=  0.13343563)
    36a ->  45a  :     0.041739 (c=  0.20430054)
    37a ->  41a  :     0.028739 (c=  0.16952629)
    37a ->  45a  :     0.118819 (c= -0.34470165)
    38a ->  39a  :     0.027013 (c=  0.16435673)
    38a ->  40a  :     0.029372 (c= -0.17138231)
    38a ->  41a  :     0.134643 (c= -0.36693747)
    38a ->  43a  :     0.070738 (c= -0.26596557)
    38a ->  45a  :     0.135260 (c=  0.36777691)

STATE  9:  E=   0.152700 au      4.155 eV    33513.8 cm**-1
    31a ->  39a  :     0.043996 (c=  0.20975194)
    32a ->  39a  :     0.010701 (c=  0.10344737)
    33a ->  39a  :     0.100115 (c=  0.31640975)
    33a ->  40a  :     0.013922 (c=  0.11799024)
    33a ->  45a  :     0.027482 (c=  0.16577588)
    35a ->  40a  :     0.026746 (c= -0.16354211)
    35a ->  41a  :     0.015692 (c= -0.12526886)
    35a ->  45a  :     0.013153 (c=  0.11468484)
    36a ->  40a  :     0.047750 (c= -0.21851704)
    36a ->  41a  :     0.020232 (c= -0.14223751)
    36a ->  45a  :     0.077688 (c=  0.27872517)
    37a ->  43a  :     0.024781 (c= -0.15741963)
    37a ->  45a  :     0.086524 (c= -0.29414914)
    38a ->  39a  :     0.117680 (c= -0.34304493)
    38a ->  40a  :     0.065196 (c=  0.25533470)
    38a ->  41a  :     0.147920 (c=  0.38460392)
    38a ->  43a  :     0.057577 (c=  0.23995158)
    38a ->  45a  :     0.034033 (c=  0.18447940)

STATE 10:  E=   0.158936 au      4.325 eV    34882.5 cm**-1
    32a ->  42a  :     0.011885 (c=  0.10901780)
    35a ->  40a  :     0.017677 (c=  0.13295363)
    35a ->  41a  :     0.045344 (c= -0.21294023)
    35a ->  42a  :     0.150372 (c= -0.38777797)
    35a ->  43a  :     0.012905 (c=  0.11360216)
    35a ->  47a  :     0.012540 (c=  0.11198234)
    36a ->  40a  :     0.051836 (c= -0.22767422)
    36a ->  41a  :     0.081539 (c=  0.28554971)
    36a ->  42a  :     0.190266 (c=  0.43619496)
    36a ->  43a  :     0.030697 (c= -0.17520603)
    36a ->  47a  :     0.022182 (c= -0.14893631)
    37a ->  40a  :     0.023613 (c= -0.15366648)
    37a ->  41a  :     0.042433 (c=  0.20599390)
    37a ->  43a  :     0.013103 (c= -0.11446989)
    38a ->  42a  :     0.227076 (c= -0.47652450)


----------------------
CIS-EXCITATION SPECTRA
----------------------

Center of mass = (  0.1369,  0.1151,  0.0002)
Calculating the Dipole integrals                  ... done
Transforming integrals                            ... done
Calculating the Linear Momentum integrals         ... done
Transforming integrals                            ... done
Calculating angular momentum integrals            ... done
Transforming integrals                            ... done

-----------------------------------------------------------------------------
         ABSORPTION SPECTRUM VIA TRANSITION ELECTRIC DIPOLE MOMENTS
-----------------------------------------------------------------------------
State   Energy  Wavelength   fosc         T2         TX        TY        TZ  
        (cm-1)    (nm)                  (au**2)     (au)      (au)      (au) 
-----------------------------------------------------------------------------
   1   28240.3    354.1   0.249192695   2.90497  -1.69648   0.01432  -0.16350
   2   30851.5    324.1   0.002662047   0.02841  -0.01770   0.11378  -0.12307
   3   33658.5    297.1   0.095761691   0.93664  -0.95050  -0.09219  -0.15715
   4   36074.7    277.2   0.125960217   1.14949   0.96062   0.25378   0.40287
   5   37103.0    269.5   0.280274621   2.48685  -0.74121  -0.59894   1.25648
   6   39858.6    250.9   0.149663008   1.23614  -1.00985  -0.34174   0.31552
   7   40676.8    245.8   0.319893721   2.58901   1.56537  -0.35926  -0.09786
   8   41026.7    243.7   0.550523676   4.41759  -1.80026   0.78003  -0.75380
   9   42913.1    233.0   0.015009679   0.11515  -0.07582  -0.30177  -0.13541
  10   43453.7    230.1   0.028273552   0.21420  -0.38174  -0.01123   0.26144
  11   12416.9    805.4   spin forbidden (mult=3)
  12   15575.3    642.0   spin forbidden (mult=3)
  13   17402.4    574.6   spin forbidden (mult=3)
  14   22527.4    443.9   spin forbidden (mult=3)
  15   26020.5    384.3   spin forbidden (mult=3)
  16   26815.6    372.9   spin forbidden (mult=3)
  17   27732.9    360.6   spin forbidden (mult=3)
  18   29256.3    341.8   spin forbidden (mult=3)
  19   33513.8    298.4   spin forbidden (mult=3)
  20   34882.5    286.7   spin forbidden (mult=3)

-----------------------------------------------------------------------------
         ABSORPTION SPECTRUM VIA TRANSITION VELOCITY DIPOLE MOMENTS
-----------------------------------------------------------------------------
State   Energy  Wavelength   fosc         P2         PX        PY        PZ  
        (cm-1)    (nm)                  (au**2)     (au)      (au)      (au) 
-----------------------------------------------------------------------------
   1   28240.3    354.1   0.070046117   0.01352   0.11535  -0.00257   0.01438
   2   30851.5    324.1   0.000095255   0.00002  -0.00153  -0.00420  -0.00035
   3   33658.5    297.1   0.052392940   0.01205   0.10856   0.01255   0.01047
   4   36074.7    277.2   0.091978734   0.02268  -0.13955  -0.05106  -0.02441
   5   37103.0    269.5   0.043669926   0.01107   0.06979   0.03668  -0.06970
   6   39858.6    250.9   0.078904929   0.02149   0.12966   0.06741  -0.01177
   7   40676.8    245.8   0.231808125   0.06444  -0.19307   0.15381   0.05925
   8   41026.7    243.7   0.224993631   0.06309   0.23229  -0.02808   0.09133
   9   42913.1    233.0   0.004095449   0.00120   0.02171   0.02468   0.01099
  10   43453.7    230.1   0.013090924   0.00389   0.03659   0.05046   0.00163
  11   12416.9    805.4   spin forbidden (mult=3)
  12   15575.3    642.0   spin forbidden (mult=3)
  13   17402.4    574.6   spin forbidden (mult=3)
  14   22527.4    443.9   spin forbidden (mult=3)
  15   26020.5    384.3   spin forbidden (mult=3)
  16   26815.6    372.9   spin forbidden (mult=3)
  17   27732.9    360.6   spin forbidden (mult=3)
  18   29256.3    341.8   spin forbidden (mult=3)
  19   33513.8    298.4   spin forbidden (mult=3)
  20   34882.5    286.7   spin forbidden (mult=3)

-------------------------------------------------------------------
                             CD SPECTRUM
-------------------------------------------------------------------
State   Energy Wavelength       R         MX        MY        MZ   
        (cm-1)   (nm)       (1e40*sgs)   (au)      (au)      (au)  
-------------------------------------------------------------------
   1   28240.3    354.1      4.53742  -0.01344   0.15528   0.09423
   2   30851.5    324.1      8.39174   0.01834   0.25453   0.08805
   3   33658.5    297.1      3.18927  -0.03801   0.06643   0.14789
   4   36074.7    277.2    -23.87600   0.07840  -0.11685  -0.23904
   5   37103.0    269.5     -9.02257  -0.01104  -0.39720  -0.21108
   6   39858.6    250.9     57.52192  -0.11349   0.02938   0.05528
   7   40676.8    245.8    -333.29362  -0.41049   0.15266   0.09758
   8   41026.7    243.7    241.27278  -0.23384  -0.10759  -0.23178
   9   42913.1    233.0    -24.12216  -0.01560   0.09175   0.18213
  10   43453.7    230.1     14.10249  -0.18503  -0.12544  -0.16114
  11   12416.9    805.4 spin forbidden
  12   15575.3    642.0 spin forbidden
  13   17402.4    574.6 spin forbidden
  14   22527.4    443.9 spin forbidden
  15   26020.5    384.3 spin forbidden
  16   26815.6    372.9 spin forbidden
  17   27732.9    360.6 spin forbidden
  18   29256.3    341.8 spin forbidden
  19   33513.8    298.4 spin forbidden
  20   34882.5    286.7 spin forbidden

Total run time:        1.972 sec

           *** ORCA-CIS/TD-DFT FINISHED WITHOUT ERROR ***

-----------------------
CIS/TD-DFT TOTAL ENERGY
-----------------------

    E(SCF)  =     12.103192846 Eh
    DE(CIS) =      0.128672410 Eh (Root  1)
    ----------------------------- ---------
    E(tot)  =     12.231865256 Eh


-------------------------   --------------------
FINAL SINGLE POINT ENERGY        12.231865256376
-------------------------   --------------------


                            ***************************************
                            *     ORCA property calculations      *
                            ***************************************

                                    ---------------------
                                    Active property flags
                                    ---------------------
   (+) Dipole Moment


------------------------------------------------------------------------------
                       ORCA ELECTRIC PROPERTIES CALCULATION
------------------------------------------------------------------------------

Dipole Moment Calculation                       ... on
Quadrupole Moment Calculation                   ... off
Polarizability Calculation                      ... off
GBWName                                         ... ARUHCDRGLVIGLO-UHFFFAOYSA-N.gbw
Electron density file                           ... ARUHCDRGLVIGLO-UHFFFAOYSA-N.scfp.tmp

-------------
DIPOLE MOMENT
-------------
                                X             Y             Z
Electronic contribution:      6.89035       1.72939      -2.83749
Nuclear contribution   :     -1.90054      -3.80203       2.23933
                        -----------------------------------------
Total Dipole Moment    :      4.98981      -2.07265      -0.59816
                        -----------------------------------------
Magnitude (a.u.)       :      5.43616
Magnitude (Debye)      :     13.81763


Timings for individual modules:

Sum of individual times         ...        2.055 sec (=   0.034 min)
STO integral calculation        ...        0.010 sec (=   0.000 min)   0.5 %
SCF iterations                  ...        0.065 sec (=   0.001 min)   3.2 %
CIS module                      ...        1.980 sec (=   0.033 min)  96.3 %
                             ****ORCA TERMINATED NORMALLY****
TOTAL RUN TIME: 0 days 0 hours 0 minutes 2 seconds 132 msec
