
                                 *****************
                                 * O   R   C   A *
                                 *****************

           --- An Ab Initio, DFT and Semiempirical electronic structure package ---

                  #######################################################
                  #                        -***-                        #
                  #  Department of molecular theory and spectroscopy    #
                  #              Directorship: Frank Neese              #
                  # Max Planck Institute for Chemical Energy Conversion #
                  #                  D-45470 Muelheim/Ruhr              #
                  #                       Germany                       #
                  #                                                     #
                  #                  All rights reserved                #
                  #                        -***-                        #
                  #######################################################


                         Program Version 3.0.3 - RELEASE   -


 With contributions from (in alphabetic order):
   Ute Becker             : Parallelization
   Dmytro Bykov           : SCF Hessian
   Dmitry Ganyushin       : Spin-Orbit,Spin-Spin,Magnetic field MRCI
   Andreas Hansen         : Spin unrestricted coupled pair/coupled cluster methods
   Dimitrios Liakos       : Extrapolation schemes; parallel MDCI
   Robert Izsak           : Overlap fitted RIJCOSX, COSX-SCS-MP3
   Christian Kollmar      : KDIIS, OOCD, Brueckner-CCSD(T), CCSD density
   Simone Kossmann        : Meta GGA functionals, TD-DFT gradient, OOMP2, MP2 Hessian
   Taras Petrenko         : DFT Hessian,TD-DFT gradient, ASA and ECA modules, normal mode analysis, Resonance Raman, ABS, FL, XAS/XES, NRVS
   Christoph Reimann      : Effective Core Potentials
   Michael Roemelt        : Restricted open shell CIS
   Christoph Riplinger    : Improved optimizer, TS searches, QM/MM, DLPNO-CCSD
   Barbara Sandhoefer     : DKH picture change effects
   Igor Schapiro          : Molecular dynamics
   Kantharuban Sivalingam : CASSCF convergence, NEVPT2
   Boris Wezisla          : Elementary symmetry handling
   Frank Wennmohs         : Technical directorship


 We gratefully acknowledge several colleagues who have allowed us to
 interface, adapt or use parts of their codes:
   Stefan Grimme, W. Hujo, H. Kruse, T. Risthaus : VdW corrections, initial TS optimization,
                                                   DFT functionals, gCP
   Ed Valeev                                     : LibInt (2-el integral package), F12 methods
   Garnet Chan, S. Sharma, R. Olivares           : DMRG
   Ulf Ekstrom                                   : XCFun DFT Library
   Mihaly Kallay                                 : mrcc  (arbitrary order and MRCC methods)
   Andreas Klamt, Michael Diedenhofen            : otool_cosmo (COSMO solvation model)
   Frank Weinhold                                : gennbo (NPA and NBO analysis)
   Christopher J. Cramer and Donald G. Truhlar   : smd solvation model


 Your calculation uses the libint2 library for the computation of 2-el integrals
 For citations please refer to: http://libint.valeyev.net

 This ORCA versions uses:
   CBLAS   interface :  Fast vector & matrix operations
   LAPACKE interface :  Fast linear algebra routines
   SCALAPACK package :  Parallel linear algebra routines


leaving
================================================================================
                                        WARNINGS
                       Please study these warnings very carefully!
================================================================================
Now building the actual basis set

WARNING: Direct SCF is incompatible with Method<>HF and Method<>DFT
  ===> : conventional SCF is chosen

WARNING: The NDO methods need Guess=HUECKEL or Guess=HCORE or Guess=MOREAD
  ===> : Guess is set to Hueckel

WARNING: The NDO methods need %rel::SOCType==1
  ===> : %rel::SOCType is set to 1

WARNING: The NDO methods cannot have frozencore=1
  ===> : %method FrozenCore=0 end
INFO   : Checking CIS options ...


INFO   : the flag for use of LIBINT has been found!

================================================================================
                                       INPUT FILE
================================================================================
NAME = BEUGBYXJXMVRFO-UHFFFAOYSA-N.inp
|  1> !RHF ZINDO/S TightSCF DIIS NoRICO NoMOPrint
|  2> %cis NRoots 10
|  3> MaxDim 25
|  4> triplets true
|  5> end
|  6> 
|  7> * xyz 0 1
|  8> C -4.10987 -1.12424 0.68999
|  9> N -3.55263 0.22522 0.50706
| 10> C -2.26672 0.32486 -0.02815
| 11> C -1.34863 -0.74203 0.11572
| 12> C -0.02892 -0.58682 -0.27519
| 13> C 0.41341 0.61645 -0.82978
| 14> C -0.49685 1.66083 -1.01574
| 15> C -1.81845 1.52711 -0.61989
| 16> C 1.81111 0.80871 -1.25574
| 17> O 2.09745 1.54869 -2.17050
| 18> C 2.88100 0.07438 -0.52755
| 19> C 2.83191 -0.07621 0.85830
| 20> C 3.85728 -0.75186 1.51588
| 21> C 4.92808 -1.27259 0.78947
| 22> C 4.98028 -1.11078 -0.59424
| 23> C 3.95933 -0.43029 -1.25447
| 24> C -4.55575 1.21037 0.07487
| 25> H -3.51090 -1.67090 1.44208
| 26> H -4.13181 -1.71144 -0.24315
| 27> H -5.13718 -1.06626 1.08686
| 28> H -1.66499 -1.68821 0.54162
| 29> H 0.66907 -1.41937 -0.15611
| 30> H -0.15610 2.59080 -1.48204
| 31> H -2.49923 2.35786 -0.77124
| 32> H 1.99739 0.33945 1.42461
| 33> H 3.82262 -0.87144 2.59648
| 34> H 5.72750 -1.80260 1.30419
| 35> H 5.81953 -1.51053 -1.15896
| 36> H 4.00065 -0.28091 -2.33508
| 37> H -4.72718 1.20577 -1.01431
| 38> H -4.23406 2.22298 0.38280
| 39> H -5.51890 1.02302 0.57926
| 40> **                         ****END OF INPUT****
================================================================================

                       ****************************
                       * Single Point Calculation *
                       ****************************

---------------------------------
CARTESIAN COORDINATES (ANGSTROEM)
---------------------------------
  C     -4.109870   -1.124240    0.689990
  N     -3.552630    0.225220    0.507060
  C     -2.266720    0.324860   -0.028150
  C     -1.348630   -0.742030    0.115720
  C     -0.028920   -0.586820   -0.275190
  C      0.413410    0.616450   -0.829780
  C     -0.496850    1.660830   -1.015740
  C     -1.818450    1.527110   -0.619890
  C      1.811110    0.808710   -1.255740
  O      2.097450    1.548690   -2.170500
  C      2.881000    0.074380   -0.527550
  C      2.831910   -0.076210    0.858300
  C      3.857280   -0.751860    1.515880
  C      4.928080   -1.272590    0.789470
  C      4.980280   -1.110780   -0.594240
  C      3.959330   -0.430290   -1.254470
  C     -4.555750    1.210370    0.074870
  H     -3.510900   -1.670900    1.442080
  H     -4.131810   -1.711440   -0.243150
  H     -5.137180   -1.066260    1.086860
  H     -1.664990   -1.688210    0.541620
  H      0.669070   -1.419370   -0.156110
  H     -0.156100    2.590800   -1.482040
  H     -2.499230    2.357860   -0.771240
  H      1.997390    0.339450    1.424610
  H      3.822620   -0.871440    2.596480
  H      5.727500   -1.802600    1.304190
  H      5.819530   -1.510530   -1.158960
  H      4.000650   -0.280910   -2.335080
  H     -4.727180    1.205770   -1.014310
  H     -4.234060    2.222980    0.382800
  H     -5.518900    1.023020    0.579260

----------------------------
CARTESIAN COORDINATES (A.U.)
----------------------------
  NO LB      ZA    FRAG    MASS        X           Y           Z
   0 C     4.0000    0    12.011         -7.766528746018935         -2.124505708799628          1.303892135144324
   1 N     5.0000    0    14.007         -6.713497755152656          0.425604119881744          0.958204533466110
   2 C     4.0000    0    12.011         -4.283480022281979          0.613896431865658         -0.053195790669883
   3 C     4.0000    0    12.011         -2.548541355990217         -1.402233483153586          0.218679108217367
   4 C     4.0000    0    12.011         -0.054650879793003         -1.108929089907669         -0.520033734793789
   5 C     4.0000    0    12.011          0.781231681024385          1.164921675255756         -1.568056951405176
   6 C     4.0000    0    12.011         -0.938910429638774          3.138513855000432         -1.919470423269172
   7 C     4.0000    0    12.011         -3.436372488229100          2.885819676372483         -1.171422333156445
   8 C     4.0000    0    12.011          3.422501898406118          1.528240421763456         -2.373004695410273
   9 O     6.0000    0    15.999          3.963606079593129          2.926599966342503         -4.101650573676077
  10 C     4.0000    0    12.011          5.444300991827125          0.140557829841063         -0.996925021950156
  11 C     4.0000    0    12.011          5.351534335912932         -0.144016028666139          1.621951940744610
  12 C     4.0000    0    12.011          7.289202821851765         -1.420809491050032          2.864598051888547
  13 C     4.0000    0    12.011          9.312721566054641         -2.404846580766846          1.491882090946810
  14 C     4.0000    0    12.011          9.411365270245330         -2.099069995037048         -1.122950857821365
  15 C     4.0000    0    12.011          7.482049373818429         -0.813130258164975         -2.370604743220193
  16 C     4.0000    0    12.011         -8.609119834611741          2.287267820714265          0.141483795646684
  17 H     1.0000    0     1.008         -6.634639483584122         -3.157543397169019          2.725136263205159
  18 H     1.0000    0     1.008         -7.807989337397166         -3.234152894638187         -0.459486909462952
  19 H     1.0000    0     1.008         -9.707863300657575         -2.014939387554874          2.053867745913652
  20 H     1.0000    0     1.008         -3.146375115717545         -3.190254556547196          1.023513468654428
  21 H     1.0000    0     1.008          1.264359064422692         -2.682220582703807         -0.295005146766447
  22 H     1.0000    0     1.008         -0.294986249505107          4.895902467763179         -2.800649719516652
  23 H     1.0000    0     1.008         -4.722860245680010          4.455709662127562         -1.457432383525426
  24 H     1.0000    0     1.008          3.774520082632969          0.641467536159569          2.692122747645554
  25 H     1.0000    0     1.008          7.223704914050055         -1.646782942144336          4.906636112203851
  26 H     1.0000    0     1.008         10.823406432033970         -3.406420329006448          2.464561926598757
  27 H     1.0000    0     1.008         10.997317928138742         -2.854488017072068         -2.190117000169374
  28 H     1.0000    0     1.008          7.560132857672056         -0.530842968279819         -4.412661700796837
  29 H     1.0000    0     1.008         -8.933075585749862          2.278575080498228         -1.916768114897665
  30 H     1.0000    0     1.008         -8.001213834590615          4.200823401184264          0.723387164065055
  31 H     1.0000    0     1.008        -10.429209560497997          1.933227629524119          1.094642760335224

--------------------------------
INTERNAL COORDINATES (ANGSTROEM)
--------------------------------
 C      0   0   0   0.000000     0.000     0.000
 N      1   0   0   1.471401     0.000     0.000
 C      2   1   0   1.396403   117.506     0.000
 C      3   2   1   1.414865   120.316   334.586
 C      4   3   2   1.385112   120.335   187.541
 C      5   4   3   1.396812   120.684   359.296
 C      6   5   4   1.397814   119.356   358.628
 C      7   6   5   1.386075   120.720     1.927
 C      6   5   4   1.473761   121.834   180.071
 O      9   6   5   1.210928   121.488   149.733
 C      9   6   5   1.488007   118.430   329.365
 C     11   9   6   1.394872   120.943   320.192
 C     12  11   9   1.392946   119.702   180.925
 C     13  12  11   1.394792   120.024     0.101
 C     14  13  12   1.394116   120.154     0.443
 C     15  14  13   1.393309   119.972   359.844
 C      2   1   3   1.470904   113.111   142.694
 H      1   2   3   1.106003   109.436    64.773
 H      1   2   3   1.102740   112.998   303.316
 H      1   2   3   1.102830   110.445   181.833
 H      4   3   2   1.084772   120.557     6.951
 H      5   4   3   1.092936   119.497   179.883
 H      7   6   5   1.094710   119.254   182.083
 H      8   7   6   1.084672   118.993   179.577
 H     12  11   9   1.090827   120.105     0.510
 H     13  12  11   1.087749   119.924   180.004
 H     14  13  12   1.088540   119.955   180.156
 H     15  14  13   1.087681   120.103   179.529
 H     16  15  14   1.091668   120.541   178.777
 H     17   2   1   1.102598   113.172   276.406
 H     17   2   1   1.106203   109.450   154.743
 H     17   2   1   1.103253   110.322    38.015

---------------------------
INTERNAL COORDINATES (A.U.)
---------------------------
 C      0   0   0   0.000000     0.000     0.000
 N      1   0   0   2.780546     0.000     0.000
 C      2   1   0   2.638820   117.506     0.000
 C      3   2   1   2.673707   120.316   334.586
 C      4   3   2   2.617482   120.335   187.541
 C      5   4   3   2.639593   120.684   359.296
 C      6   5   4   2.641486   119.356   358.628
 C      7   6   5   2.619303   120.720     1.927
 C      6   5   4   2.785004   121.834   180.071
 O      9   6   5   2.288322   121.488   149.733
 C      9   6   5   2.811926   118.430   329.365
 C     11   9   6   2.635926   120.943   320.192
 C     12  11   9   2.632286   119.702   180.925
 C     13  12  11   2.635774   120.024     0.101
 C     14  13  12   2.634498   120.154     0.443
 C     15  14  13   2.632972   119.972   359.844
 C      2   1   3   2.779606   113.111   142.694
 H      1   2   3   2.090042   109.436    64.773
 H      1   2   3   2.083877   112.998   303.316
 H      1   2   3   2.084046   110.445   181.833
 H      4   3   2   2.049923   120.557     6.951
 H      5   4   3   2.065350   119.497   179.883
 H      7   6   5   2.068703   119.254   182.083
 H      8   7   6   2.049733   118.993   179.577
 H     12  11   9   2.061365   120.105     0.510
 H     13  12  11   2.055547   119.924   180.004
 H     14  13  12   2.057043   119.955   180.156
 H     15  14  13   2.055419   120.103   179.529
 H     16  15  14   2.062954   120.541   178.777
 H     17   2   1   2.083608   113.172   276.406
 H     17   2   1   2.090420   109.450   154.743
 H     17   2   1   2.084846   110.322    38.015

----------------------------
SLATER BASIS SET DIM=  83
----------------------------
  0 C     2 shells
 l=0 nsto= 1
    2       1.625000000000        1.000000000000
 l=1 nsto= 1
    2       1.625000000000        1.000000000000
  1 N     2 shells
 l=0 nsto= 1
    2       1.950000000000        1.000000000000
 l=1 nsto= 1
    2       1.950000000000        1.000000000000
  2 C     2 shells
 l=0 nsto= 1
    2       1.625000000000        1.000000000000
 l=1 nsto= 1
    2       1.625000000000        1.000000000000
  3 C     2 shells
 l=0 nsto= 1
    2       1.625000000000        1.000000000000
 l=1 nsto= 1
    2       1.625000000000        1.000000000000
  4 C     2 shells
 l=0 nsto= 1
    2       1.625000000000        1.000000000000
 l=1 nsto= 1
    2       1.625000000000        1.000000000000
  5 C     2 shells
 l=0 nsto= 1
    2       1.625000000000        1.000000000000
 l=1 nsto= 1
    2       1.625000000000        1.000000000000
  6 C     2 shells
 l=0 nsto= 1
    2       1.625000000000        1.000000000000
 l=1 nsto= 1
    2       1.625000000000        1.000000000000
  7 C     2 shells
 l=0 nsto= 1
    2       1.625000000000        1.000000000000
 l=1 nsto= 1
    2       1.625000000000        1.000000000000
  8 C     2 shells
 l=0 nsto= 1
    2       1.625000000000        1.000000000000
 l=1 nsto= 1
    2       1.625000000000        1.000000000000
  9 O     2 shells
 l=0 nsto= 1
    2       2.275000000000        1.000000000000
 l=1 nsto= 1
    2       2.275000000000        1.000000000000
 10 C     2 shells
 l=0 nsto= 1
    2       1.625000000000        1.000000000000
 l=1 nsto= 1
    2       1.625000000000        1.000000000000
 11 C     2 shells
 l=0 nsto= 1
    2       1.625000000000        1.000000000000
 l=1 nsto= 1
    2       1.625000000000        1.000000000000
 12 C     2 shells
 l=0 nsto= 1
    2       1.625000000000        1.000000000000
 l=1 nsto= 1
    2       1.625000000000        1.000000000000
 13 C     2 shells
 l=0 nsto= 1
    2       1.625000000000        1.000000000000
 l=1 nsto= 1
    2       1.625000000000        1.000000000000
 14 C     2 shells
 l=0 nsto= 1
    2       1.625000000000        1.000000000000
 l=1 nsto= 1
    2       1.625000000000        1.000000000000
 15 C     2 shells
 l=0 nsto= 1
    2       1.625000000000        1.000000000000
 l=1 nsto= 1
    2       1.625000000000        1.000000000000
 16 C     2 shells
 l=0 nsto= 1
    2       1.625000000000        1.000000000000
 l=1 nsto= 1
    2       1.625000000000        1.000000000000
 17 H     1 shells
 l=0 nsto= 1
    1       1.200000000000        1.000000000000
 18 H     1 shells
 l=0 nsto= 1
    1       1.200000000000        1.000000000000
 19 H     1 shells
 l=0 nsto= 1
    1       1.200000000000        1.000000000000
 20 H     1 shells
 l=0 nsto= 1
    1       1.200000000000        1.000000000000
 21 H     1 shells
 l=0 nsto= 1
    1       1.200000000000        1.000000000000
 22 H     1 shells
 l=0 nsto= 1
    1       1.200000000000        1.000000000000
 23 H     1 shells
 l=0 nsto= 1
    1       1.200000000000        1.000000000000
 24 H     1 shells
 l=0 nsto= 1
    1       1.200000000000        1.000000000000
 25 H     1 shells
 l=0 nsto= 1
    1       1.200000000000        1.000000000000
 26 H     1 shells
 l=0 nsto= 1
    1       1.200000000000        1.000000000000
 27 H     1 shells
 l=0 nsto= 1
    1       1.200000000000        1.000000000000
 28 H     1 shells
 l=0 nsto= 1
    1       1.200000000000        1.000000000000
 29 H     1 shells
 l=0 nsto= 1
    1       1.200000000000        1.000000000000
 30 H     1 shells
 l=0 nsto= 1
    1       1.200000000000        1.000000000000
 31 H     1 shells
 l=0 nsto= 1
    1       1.200000000000        1.000000000000
------------------------------------------------------------------------------
                           ORCA NDO INTEGRAL CALCULATION
------------------------------------------------------------------------------

--------------
NDO PARAMETERS
--------------

Gamma integral treatment              ... Mataga-Nishimoto
Nuclear repulsuion treatment          ... Direct (ZA*ZB/RAB)
Interaction factors:
s-s (sigma) =    1.0000
s-p (sigma) =    1.0000
s-d (sigma) =    1.0000
p-p (sigma) =    1.2670  p-p(pi) =    0.5850
p-d (sigma) =    1.0000  p-d(pi) =    1.0000
d-d (sigma) =    1.0000  d-d(pi) =    1.0000 d-d (delta) =    1.0000

fGamma parameter for Mataga-Nishimoto gamma integrals:    1.2000

--------------------------
Parameters for Element H :
--------------------------
 One-electron parameters (in eV)
  U(s)  =   -13.060000 Beta(s) =    12.000000 Neff(s) =     1.000000
 One-center electron repulsion parameters (in eV)
  G(s,s)=    12.850000
--------------------------
Parameters for Element C :
--------------------------
 One-electron parameters (in eV)
  U(s)  =   -50.870766 Beta(s) =    17.000000 Neff(s) =     2.000000
  U(p)  =   -41.599980 Beta(p) =    17.000000 Neff(p) =     2.000000 
 One-center electron repulsion parameters (in eV)
  G(s,s)=    11.110000
  G(s,p)=    11.110000 G(p,p)  =    11.110000
 Slater-Condon parameters (in eV)
 F2(p,p)=     4.5098 G1(s,p)=    6.8977
--------------------------
Parameters for Element N :
--------------------------
 One-electron parameters (in eV)
  U(s)  =   -69.250864 Beta(s) =    26.000000 Neff(s) =     2.000000
  U(p)  =   -58.070401 Beta(p) =    26.000000 Neff(p) =     3.000000 
 One-center electron repulsion parameters (in eV)
  G(s,s)=    12.010000
  G(s,p)=    12.010000 G(p,p)  =    12.010000
 Slater-Condon parameters (in eV)
 F2(p,p)=     6.4594 G1(s,p)=    8.9583
--------------------------
Parameters for Element O :
--------------------------
 One-electron parameters (in eV)
  U(s)  =   -90.023218 Beta(s) =    34.000000 Neff(s) =     2.000000
  U(p)  =   -76.684970 Beta(p) =    34.000000 Neff(p) =     4.000000 
 One-center electron repulsion parameters (in eV)
  G(s,s)=    13.000000
  G(s,p)=    13.000000 G(p,p)  =    13.000000
 Slater-Condon parameters (in eV)
 F2(p,p)=     6.9027 G1(s,p)=   11.8152

 Number of atoms                    ....   32
 Number of basis functions          ....   83

 Overlap integrals                  .... done
 One electron matrix                .... done
 Nuclear repulsion                  .... done
 Integral list                      .... done
 Electron-electron repulsion        .... done
-------------------------------------------------------------------------------
                                 ORCA SCF
-------------------------------------------------------------------------------

------------
SCF SETTINGS
------------
Hamiltonian:
 ZDO-Hamiltonian        Method          .... INDO


General Settings:
 Integral files         IntName         .... BEUGBYXJXMVRFO-UHFFFAOYSA-N
 Hartree-Fock type      HFTyp           .... RHF
 Total Charge           Charge          ....    0
 Multiplicity           Mult            ....    1
 Number of Electrons    NEL             ....   86
 Basis Dimension        Dim             ....   83
 Nuclear Repulsion      ENuc            ....    554.6140313123 Eh

Convergence Acceleration:
 DIIS                   CNVDIIS         .... on
   Start iteration      DIISMaxIt       ....    12
   Startup error        DIISStart       ....  0.200000
   # of expansion vecs  DIISMaxEq       ....     5
   Bias factor          DIISBfac        ....   1.050
   Max. coefficient     DIISMaxC        ....  10.000
 Newton-Raphson         CNVNR           .... off
 SOSCF                  CNVSOSCF        .... on
   Start iteration      SOSCFMaxIt      ....   150
   Startup grad/error   SOSCFStart      ....  0.003300
 Level Shifting         CNVShift        .... on
   Level shift para.    LevelShift      ....    0.2500
   Turn off err/grad.   ShiftErr        ....    0.0010
 Zerner damping         CNVZerner       .... off
 Static damping         CNVDamp         .... on
   Fraction old density DampFac         ....    0.7000
   Max. Damping (<1)    DampMax         ....    0.9800
   Min. Damping (>=0)   DampMin         ....    0.0000
   Turn off err/grad.   DampErr         ....    0.1000
 Fernandez-Rico         CNVRico         .... off

SCF Procedure:
 Maximum # iterations   MaxIter         ....   125
 SCF integral mode      SCFMode         .... Conventional
 Integral Buffer length BufferLength    .... 1048576
 Integral index format  IndFormat       ....     0
 Integral value format  ValFormat       ....     0
 Integral Storage       Thresh          ....  2.500e-11 Eh

Convergence Tolerance:
 Convergence Check Mode ConvCheckMode   .... Total+1el-Energy
 Energy Change          TolE            ....  1.000e-08 Eh
 1-El. energy change                    ....  1.000e-05 Eh
 Orbital Gradient       TolG            ....  1.000e-05
 Orbital Rotation angle TolX            ....  1.000e-05
 DIIS Error             TolErr          ....  5.000e-07


Diagonalization of the overlap matrix:
Smallest eigenvalue                        ... 1.464e-01
Time for diagonalization                   ...    0.001 sec
Threshold for overlap eigenvalues          ... 1.000e-08
Number of eigenvalues below threshold      ... 0
Time for construction of square roots      ...    0.000 sec
Total time needed                          ...    0.001 sec

-------------------------------
INITIAL GUESS: EXTENDED HUECKEL
-------------------------------
EHT matrix was read from disk
EHT matrix was diagonalized
Initial density was built
                      ------------------
                      INITIAL GUESS DONE
                      ------------------

 InCore treatment chosen:
   Memory dedicated               ...    1024 MB
   Memory needed                  ...      0 MB
   Number of tiny    integrals    ...       0
   Number of small   integrals    ...       0
   Number of regular integrals    ...    3588

--------------
SCF ITERATIONS
--------------
ITER       Energy         Delta-E        Max-DP      RMS-DP      [F,P]     Damp
  0     10.1292845580   0.000000000000 0.04135687  0.00160009  0.1374944 0.7000
  1     10.1005001631  -0.028784394925 0.04151256  0.00153819  0.1123041 0.7000
                               ***Turning on DIIS***
  2     10.0774572484  -0.023042914712 0.11036601  0.00406489  0.0880104 0.0000
  3     10.0457182417  -0.031739006646 0.01929275  0.00083645  0.0259342 0.0000
  4     10.0251139434  -0.020604298385 0.00730203  0.00037893  0.0043558 0.0000
  5     10.0105249666  -0.014588976779 0.00444410  0.00022743  0.0021933 0.0000
                      *** Initiating the SOSCF procedure ***
                           *** Shutting down DIIS ***
                      *** Re-Reading the Fockian *** 
                      *** Removing any level shift *** 
ITER      Energy       Delta-E        Grad      Rot      Max-DP    RMS-DP
  6     10.01049702  -0.0000279474  0.002655  0.002655  0.003358  0.000163
  7     10.01379632   0.0032993049  0.001231  0.004304  0.002450  0.000122
  8     10.01377399  -0.0000223301  0.000502  0.003566  0.002271  0.000109
  9     10.01376717  -0.0000068270  0.000058  0.000175  0.000414  0.000012
 10     10.01376698  -0.0000001913  0.000024  0.000093  0.000159  0.000007
 11     10.01376692  -0.0000000576  0.000011  0.000059  0.000100  0.000004
 12     10.01376691  -0.0000000102  0.000003  0.000011  0.000011  0.000001
                 **** Energy Check signals convergence ****
              ***Rediagonalizing the Fockian in SOSCF/NRSCF***

               *****************************************************
               *                     SUCCESS                       *
               *           SCF CONVERGED AFTER  13 CYCLES          *
               *****************************************************


----------------
TOTAL SCF ENERGY
----------------

Total Energy       :           10.01376691 Eh             272.48845 eV

Components:
Nuclear Repulsion  :          554.61403131 Eh           15091.81505 eV
Electronic Energy  :         -544.60026441 Eh          -14819.32659 eV

One Electron Energy:        -1022.46503202 Eh          -27822.68800 eV
Two Electron Energy:          477.86476762 Eh           13003.36141 eV


---------------
SCF CONVERGENCE
---------------

  Last Energy change         ...   -5.4490e-10  Tolerance :   1.0000e-08
  Last MAX-Density change    ...    4.2456e-06  Tolerance :   1.0000e-07
  Last RMS-Density change    ...    2.7564e-07  Tolerance :   5.0000e-09
  Last Orbital Gradient      ...    1.0646e-06  Tolerance :   1.0000e-05
  Last Orbital Rotation      ...    4.4547e-06  Tolerance :   1.0000e-05

             **** THE GBW FILE WAS UPDATED (BEUGBYXJXMVRFO-UHFFFAOYSA-N.gbw) ****
             **** DENSITY FILE WAS UPDATED (BEUGBYXJXMVRFO-UHFFFAOYSA-N.scfp.tmp) ****
             **** ENERGY FILE WAS UPDATED (BEUGBYXJXMVRFO-UHFFFAOYSA-N.en.tmp) ****
----------------
ORBITAL ENERGIES
----------------

  NO   OCC          E(Eh)            E(eV) 
   0   2.0000      -1.710514       -46.5454 
   1   2.0000      -1.666409       -45.3453 
   2   2.0000      -1.586296       -43.1653 
   3   2.0000      -1.529150       -41.6103 
   4   2.0000      -1.299261       -35.3547 
   5   2.0000      -1.261509       -34.3274 
   6   2.0000      -1.228440       -33.4275 
   7   2.0000      -1.197460       -32.5845 
   8   2.0000      -1.148446       -31.2508 
   9   2.0000      -1.075645       -29.2698 
  10   2.0000      -0.985272       -26.8106 
  11   2.0000      -0.944618       -25.7044 
  12   2.0000      -0.919920       -25.0323 
  13   2.0000      -0.902175       -24.5494 
  14   2.0000      -0.887878       -24.1604 
  15   2.0000      -0.855968       -23.2921 
  16   2.0000      -0.738394       -20.0927 
  17   2.0000      -0.731769       -19.9125 
  18   2.0000      -0.689016       -18.7491 
  19   2.0000      -0.677204       -18.4277 
  20   2.0000      -0.652353       -17.7514 
  21   2.0000      -0.637581       -17.3495 
  22   2.0000      -0.616416       -16.7735 
  23   2.0000      -0.605336       -16.4720 
  24   2.0000      -0.585335       -15.9278 
  25   2.0000      -0.580240       -15.7891 
  26   2.0000      -0.574358       -15.6291 
  27   2.0000      -0.558626       -15.2010 
  28   2.0000      -0.547971       -14.9110 
  29   2.0000      -0.514309       -13.9950 
  30   2.0000      -0.507530       -13.8106 
  31   2.0000      -0.503366       -13.6973 
  32   2.0000      -0.495416       -13.4810 
  33   2.0000      -0.479219       -13.0402 
  34   2.0000      -0.470941       -12.8150 
  35   2.0000      -0.457346       -12.4450 
  36   2.0000      -0.448516       -12.2047 
  37   2.0000      -0.397818       -10.8252 
  38   2.0000      -0.370085       -10.0705 
  39   2.0000      -0.348823        -9.4919 
  40   2.0000      -0.340293        -9.2598 
  41   2.0000      -0.335607        -9.1323 
  42   2.0000      -0.304916        -8.2972 
  43   0.0000      -0.018888        -0.5140 
  44   0.0000       0.015299         0.4163 
  45   0.0000       0.017557         0.4778 
  46   0.0000       0.023135         0.6295 
  47   0.0000       0.056853         1.5470 
  48   0.0000       0.082862         2.2548 
  49   0.0000       0.096928         2.6375 
  50   0.0000       0.102486         2.7888 
  51   0.0000       0.110096         2.9959 
  52   0.0000       0.112578         3.0634 
  53   0.0000       0.123660         3.3650 
  54   0.0000       0.130879         3.5614 
  55   0.0000       0.132540         3.6066 
  56   0.0000       0.137600         3.7443 
  57   0.0000       0.147795         4.0217 
  58   0.0000       0.161611         4.3977 
  59   0.0000       0.191185         5.2024 
  60   0.0000       0.196266         5.3407 
  61   0.0000       0.203862         5.5474 
  62   0.0000       0.204737         5.5712 
  63   0.0000       0.219269         5.9666 
  64   0.0000       0.232025         6.3137 
  65   0.0000       0.241554         6.5730 
  66   0.0000       0.242641         6.6026 
  67   0.0000       0.248494         6.7619 
  68   0.0000       0.259825         7.0702 
  69   0.0000       0.280499         7.6328 
  70   0.0000       0.307214         8.3597 
  71   0.0000       0.322475         8.7750 
  72   0.0000       0.326361         8.8807 
  73   0.0000       0.339030         9.2255 
  74   0.0000       0.380990        10.3673 
  75   0.0000       0.385904        10.5010 
  76   0.0000       0.415306        11.3010 
  77   0.0000       0.418744        11.3946 
  78   0.0000       0.442063        12.0292 
  79   0.0000       0.447660        12.1814 
  80   0.0000       0.455596        12.3974 
  81   0.0000       0.485132        13.2011 
  82   0.0000       0.504833        13.7372 

                    ********************************
                    * MULLIKEN POPULATION ANALYSIS *
                    ********************************

-----------------------
MULLIKEN ATOMIC CHARGES
-----------------------
   0 C :   -0.036375
   1 N :   -0.365033
   2 C :    0.160884
   3 C :   -0.095323
   4 C :   -0.062061
   5 C :    0.005614
   6 C :   -0.040623
   7 C :   -0.093222
   8 C :    0.472449
   9 O :   -0.724950
  10 C :    0.026634
  11 C :   -0.066802
  12 C :   -0.072953
  13 C :   -0.064473
  14 C :   -0.070399
  15 C :   -0.047240
  16 C :   -0.036457
  17 H :    0.060193
  18 H :    0.067620
  19 H :    0.057933
  20 H :    0.076388
  21 H :    0.076831
  22 H :    0.101369
  23 H :    0.079438
  24 H :    0.078066
  25 H :    0.073661
  26 H :    0.075294
  27 H :    0.076820
  28 H :    0.099561
  29 H :    0.068718
  30 H :    0.061431
  31 H :    0.057008
Sum of atomic charges:   -0.0000000


                     *******************************
                     * LOEWDIN POPULATION ANALYSIS *
                     *******************************

----------------------
LOEWDIN ATOMIC CHARGES
----------------------
   0 C :    0.036676
   1 N :   -0.243281
   2 C :    0.132216
   3 C :   -0.069120
   4 C :   -0.013664
   5 C :   -0.012282
   6 C :    0.007894
   7 C :   -0.065272
   8 C :    0.402616
   9 O :   -0.628641
  10 C :    0.018774
  11 C :   -0.023238
  12 C :   -0.035818
  13 C :   -0.021971
  14 C :   -0.031307
  15 C :   -0.004065
  16 C :    0.036555
  17 H :    0.024697
  18 H :    0.029517
  19 H :    0.022000
  20 H :    0.036904
  21 H :    0.036421
  22 H :    0.054125
  23 H :    0.039044
  24 H :    0.037169
  25 H :    0.033611
  26 H :    0.034707
  27 H :    0.035893
  28 H :    0.052645
  29 H :    0.030377
  30 H :    0.025485
  31 H :    0.021332

-------------------------------
LOEWDIN REDUCED ORBITAL CHARGES
-------------------------------
  0 C s       :     1.063539  s :     1.063539
      pz      :     1.003379  p :     2.899784
      px      :     0.985150
      py      :     0.911255
  1 N s       :     1.299277  s :     1.299277
      pz      :     1.694261  p :     3.944004
      px      :     1.099740
      py      :     1.150003
  2 C s       :     1.050430  s :     1.050430
      pz      :     0.920983  p :     2.817354
      px      :     0.902538
      py      :     0.993834
  3 C s       :     1.088262  s :     1.088262
      pz      :     1.047688  p :     2.980858
      px      :     0.971244
      py      :     0.961926
  4 C s       :     1.096099  s :     1.096099
      pz      :     0.964641  p :     2.917565
      px      :     0.980375
      py      :     0.972549
  5 C s       :     1.046444  s :     1.046444
      pz      :     1.041539  p :     2.965838
      px      :     0.934702
      py      :     0.989597
  6 C s       :     1.095911  s :     1.095911
      pz      :     0.941896  p :     2.896196
      px      :     0.982619
      py      :     0.971681
  7 C s       :     1.088455  s :     1.088455
      pz      :     1.049672  p :     2.976817
      px      :     0.970733
      py      :     0.956412
  8 C s       :     1.075086  s :     1.075086
      pz      :     0.791164  p :     2.522299
      px      :     0.988286
      py      :     0.742849
  9 O s       :     1.801138  s :     1.801138
      pz      :     1.413312  p :     4.827503
      px      :     1.940003
      py      :     1.474187
 10 C s       :     1.054649  s :     1.054649
      pz      :     0.971233  p :     2.926576
      px      :     0.968112
      py      :     0.987232
 11 C s       :     1.091908  s :     1.091908
      pz      :     0.977858  p :     2.931330
      px      :     0.967988
      py      :     0.985484
 12 C s       :     1.088177  s :     1.088177
      pz      :     0.949973  p :     2.947641
      px      :     0.995918
      py      :     1.001751
 13 C s       :     1.089369  s :     1.089369
      pz      :     0.987696  p :     2.932602
      px      :     0.968644
      py      :     0.976262
 14 C s       :     1.088963  s :     1.088963
      pz      :     0.981362  p :     2.942344
      px      :     0.968856
      py      :     0.992126
 15 C s       :     1.091261  s :     1.091261
      pz      :     0.962156  p :     2.912804
      px      :     0.968168
      py      :     0.982480
 16 C s       :     1.063486  s :     1.063486
      pz      :     0.997544  p :     2.899959
      px      :     0.947638
      py      :     0.954776
 17 H s       :     0.975303  s :     0.975303
 18 H s       :     0.970483  s :     0.970483
 19 H s       :     0.978000  s :     0.978000
 20 H s       :     0.963096  s :     0.963096
 21 H s       :     0.963579  s :     0.963579
 22 H s       :     0.945875  s :     0.945875
 23 H s       :     0.960956  s :     0.960956
 24 H s       :     0.962831  s :     0.962831
 25 H s       :     0.966389  s :     0.966389
 26 H s       :     0.965293  s :     0.965293
 27 H s       :     0.964107  s :     0.964107
 28 H s       :     0.947355  s :     0.947355
 29 H s       :     0.969623  s :     0.969623
 30 H s       :     0.974515  s :     0.974515
 31 H s       :     0.978668  s :     0.978668


                      *****************************
                      * MAYER POPULATION ANALYSIS *
                      *****************************

  NA   - Mulliken gross atomic population
  ZA   - Total nuclear charge
  QA   - Mulliken gross atomic charge
  VA   - Mayer's total valence
  BVA  - Mayer's bonded valence
  FA   - Mayer's free valence

  ATOM       NA         ZA         QA         VA         BVA        FA
  0 C      4.0364     4.0000    -0.0364     3.8787     3.8787    -0.0000
  1 N      5.3650     5.0000    -0.3650     3.0551     3.0551     0.0000
  2 C      3.8391     4.0000     0.1609     3.9115     3.9115     0.0000
  3 C      4.0953     4.0000    -0.0953     3.8840     3.8840     0.0000
  4 C      4.0621     4.0000    -0.0621     3.8918     3.8918    -0.0000
  5 C      3.9944     4.0000     0.0056     3.9187     3.9187    -0.0000
  6 C      4.0406     4.0000    -0.0406     3.8867     3.8867     0.0000
  7 C      4.0932     4.0000    -0.0932     3.8843     3.8843     0.0000
  8 C      3.5276     4.0000     0.4724     3.7426     3.7426    -0.0000
  9 O      6.7249     6.0000    -0.7249     1.6837     1.6837    -0.0000
 10 C      3.9734     4.0000     0.0266     3.9239     3.9239     0.0000
 11 C      4.0668     4.0000    -0.0668     3.8925     3.8925     0.0000
 12 C      4.0730     4.0000    -0.0730     3.8957     3.8957     0.0000
 13 C      4.0645     4.0000    -0.0645     3.8962     3.8962     0.0000
 14 C      4.0704     4.0000    -0.0704     3.8954     3.8954     0.0000
 15 C      4.0472     4.0000    -0.0472     3.8890     3.8890     0.0000
 16 C      4.0365     4.0000    -0.0365     3.8783     3.8783    -0.0000
 17 H      0.9398     1.0000     0.0602     0.9964     0.9964    -0.0000
 18 H      0.9324     1.0000     0.0676     0.9954     0.9954     0.0000
 19 H      0.9421     1.0000     0.0579     0.9966     0.9966    -0.0000
 20 H      0.9236     1.0000     0.0764     0.9942     0.9942     0.0000
 21 H      0.9232     1.0000     0.0768     0.9941     0.9941    -0.0000
 22 H      0.8986     1.0000     0.1014     0.9897     0.9897    -0.0000
 23 H      0.9206     1.0000     0.0794     0.9937     0.9937    -0.0000
 24 H      0.9219     1.0000     0.0781     0.9939     0.9939     0.0000
 25 H      0.9263     1.0000     0.0737     0.9946     0.9946    -0.0000
 26 H      0.9247     1.0000     0.0753     0.9943     0.9943     0.0000
 27 H      0.9232     1.0000     0.0768     0.9941     0.9941     0.0000
 28 H      0.9004     1.0000     0.0996     0.9901     0.9901    -0.0000
 29 H      0.9313     1.0000     0.0687     0.9953     0.9953    -0.0000
 30 H      0.9386     1.0000     0.0614     0.9962     0.9962    -0.0000
 31 H      0.9430     1.0000     0.0570     0.9968     0.9968    -0.0000

  Mayer bond orders larger than 0.1
B(  0-C ,  1-N ) :   0.9481 B(  0-C , 17-H ) :   0.9668 B(  0-C , 18-H ) :   0.9669 
B(  0-C , 19-H ) :   0.9648 B(  1-N ,  2-C ) :   1.0362 B(  1-N , 16-C ) :   0.9486 
B(  2-C ,  3-C ) :   1.3326 B(  2-C ,  5-C ) :   0.1000 B(  2-C ,  7-C ) :   1.3412 
B(  3-C ,  4-C ) :   1.4192 B(  3-C , 20-H ) :   0.9436 B(  4-C ,  5-C ) :   1.3315 
B(  4-C , 21-H ) :   0.9439 B(  5-C ,  6-C ) :   1.3435 B(  5-C ,  8-C ) :   1.0354 
B(  6-C ,  7-C ) :   1.4120 B(  6-C , 22-H ) :   0.9425 B(  7-C , 23-H ) :   0.9433 
B(  8-C ,  9-O ) :   1.5633 B(  8-C , 10-C ) :   1.0123 B( 10-C , 11-C ) :   1.3520 
B( 10-C , 13-C ) :   0.1091 B( 10-C , 15-C ) :   1.3652 B( 11-C , 12-C ) :   1.3979 
B( 11-C , 14-C ) :   0.1111 B( 11-C , 24-H ) :   0.9440 B( 12-C , 13-C ) :   1.3846 
B( 12-C , 15-C ) :   0.1089 B( 12-C , 25-H ) :   0.9461 B( 13-C , 14-C ) :   1.3898 
B( 13-C , 26-H ) :   0.9463 B( 14-C , 15-C ) :   1.3929 B( 14-C , 27-H ) :   0.9457 
B( 15-C , 28-H ) :   0.9426 B( 16-C , 29-H ) :   0.9664 B( 16-C , 30-H ) :   0.9666 
B( 16-C , 31-H ) :   0.9652 

-------
TIMINGS
-------

Total SCF time: 0 days 0 hours 0 min 0 sec 

Total time                  ....       0.065 sec
Sum of individual times     ....       0.056 sec  ( 85.9%)

Fock matrix formation       ....       0.035 sec  ( 54.6%)
Diagonalization             ....       0.006 sec  (  9.3%)
Density matrix formation    ....       0.001 sec  (  2.2%)
Population analysis         ....       0.004 sec  (  6.3%)
Initial guess               ....       0.001 sec  (  1.5%)
Orbital Transformation      ....       0.000 sec  (  0.0%)
Orbital Orthonormalization  ....       0.000 sec  (  0.0%)
DIIS solution               ....       0.002 sec  (  2.8%)
SOSCF solution              ....       0.006 sec  (  9.2%)
------------------------------------------------------------------------------
                         ORCA CIS CALCULATION
------------------------------------------------------------------------------

Input orbitals are from        ... BEUGBYXJXMVRFO-UHFFFAOYSA-N.gbw
CI-vector output               ... BEUGBYXJXMVRFO-UHFFFAOYSA-N.cis
Tamm-Dancoff approximation     ... operative
CIS-Integral strategy          ... AO-integrals
Integral handling              ... AO integral Conventional
Reference state                ... RHF
Generation of triplets         ... on
Number of operators            ... 1
Orbital ranges used for CIS calculation:
 Operator 0:  Orbitals   0... 42  to  43... 82
XAS localization array:
 Operator 0:  Orbitals  -1... -1
-------------------
XC-INTEGRATION GRID
-------------------

General Integration Accuracy     IntAcc      ...  3.670
Radial Grid Type                 RadialGrid  ... Gauss-Chebyshev
Angular Grid (max. acc.)         AngularGrid ... Lebedev-50
Angular grid pruning method      GridPruning ... 3 (G Style)
Weight generation scheme         WeightScheme... Becke
Basis function cutoff            BFCut       ...    1.0000e-11
Integration weight cutoff        WCut        ...    1.0000e-14
Grids for H and He will be reduced by one unit

# of grid points (after initial pruning)     ...  18566 (   0.0 sec)
# of grid points (after weights+screening)   ...  16907 (   0.1 sec)
nearest neighbour list constructed           ...    0.0 sec
Grid point re-assignment to atoms done       ...    0.0 sec
Grid point division into batches done        ...    0.0 sec
Reduced shell lists constructed in    0.3 sec

Total number of grid points                  ...    16907
Total number of batches                      ...      274
Average number of points per batch           ...       61
Average number of grid points per atom       ...      528
Average number of shells per batch           ...    36.43 (74.35%)
Average number of basis functions per batch  ...    61.27 (73.81%)
Average number of large shells per batch     ...    26.79 (73.53%)
Average number of large basis fcns per batch ...    45.50 (74.26%)
Maximum spatial batch extension              ...  19.24, 22.93, 18.42 au
Average spatial batch extension              ...   4.26,  4.96,  4.71 au



------------------------
DAVIDSON-DIAGONALIZATION
------------------------

Dimension of the eigenvalue problem            ...   1720
Number of roots to be determined               ...     10
Maximum size of the expansion space            ...     25
Convergence tolerance for the residual         ...    2.500e-07
Convergence tolerance for the energies         ...    2.500e-07
Orthogonality tolerance                        ...    1.000e-14
Level Shift                                    ...    0.000e+00
Constructing the preconditioner                ... o.k.
Building the initial guess                     ... o.k.
Number of trial vectors determined             ...     20


                       ****Iteration    0****

   Memory handling for direct AO based CIS:
   Memory per vector needed      ...     1 MB
   Memory needed                 ...     4 MB
   Memory available              ...   512 MB
   Number of vectors per batch   ...   512
   Number of batches             ...     1
   Time for densities:     0.005
   Time for J+K (Conventional):     0.004
   Time for Sigma-Completion:     0.010
   Size of expansion space: 20
   Lowest Energy          :     0.158591981767
   Maximum Energy change  :     0.234731364406 (vector 9)
   Maximum residual norm  :     0.010007894060
   Rebuilding the expansion space

                       ****Iteration    1****
   Time for densities:     0.006
   Time for J+K (Conventional):     0.004
   Time for Sigma-Completion:     0.009
   Size of expansion space: 20
   Lowest Energy          :     0.128533845516
   Maximum Energy change  :     0.030058136251 (vector 0)
   Maximum residual norm  :     0.000773175394
   Rebuilding the expansion space

                       ****Iteration    2****
   Time for densities:     0.005
   Time for J+K (Conventional):     0.004
   Time for Sigma-Completion:     0.009
   Size of expansion space: 20
   Lowest Energy          :     0.126372390900
   Maximum Energy change  :     0.003062061963 (vector 7)
   Maximum residual norm  :     0.000476761488
   Rebuilding the expansion space

                       ****Iteration    3****
   Time for densities:     0.006
   Time for J+K (Conventional):     0.004
   Time for Sigma-Completion:     0.008
   Size of expansion space: 20
   Lowest Energy          :     0.126169593728
   Maximum Energy change  :     0.000927949030 (vector 7)
   Maximum residual norm  :     0.000091427851
   Rebuilding the expansion space

                       ****Iteration    4****
   Time for densities:     0.007
   Time for J+K (Conventional):     0.007
   Time for Sigma-Completion:     0.010
   Size of expansion space: 20
   Lowest Energy          :     0.126140401095
   Maximum Energy change  :     0.000336208003 (vector 9)
   Maximum residual norm  :     0.000150730844
   Rebuilding the expansion space

                       ****Iteration    5****
   Time for densities:     0.006
   Time for J+K (Conventional):     0.005
   Time for Sigma-Completion:     0.009
   Size of expansion space: 20
   Lowest Energy          :     0.126134936356
   Maximum Energy change  :     0.000357109099 (vector 9)
   Maximum residual norm  :     0.000076876365
   Rebuilding the expansion space

                       ****Iteration    6****
   Time for densities:     0.005
   Time for J+K (Conventional):     0.004
   Time for Sigma-Completion:     0.009
   Size of expansion space: 20
   Lowest Energy          :     0.126133823445
   Maximum Energy change  :     0.000395350924 (vector 9)
   Maximum residual norm  :     0.000174118094
   Rebuilding the expansion space

                       ****Iteration    7****
   Time for densities:     0.006
   Time for J+K (Conventional):     0.005
   Time for Sigma-Completion:     0.008
   Size of expansion space: 20
   Lowest Energy          :     0.126133589397
   Maximum Energy change  :     0.000440539026 (vector 9)
   Maximum residual norm  :     0.000105104258
   Rebuilding the expansion space

                       ****Iteration    8****
   Time for densities:     0.005
   Time for J+K (Conventional):     0.005
   Time for Sigma-Completion:     0.009
   Size of expansion space: 20
   Lowest Energy          :     0.126133538685
   Maximum Energy change  :     0.000513360380 (vector 9)
   Maximum residual norm  :     0.000220239604
   Rebuilding the expansion space

                       ****Iteration    9****
   Time for densities:     0.006
   Time for J+K (Conventional):     0.005
   Time for Sigma-Completion:     0.009
   Size of expansion space: 20
   Lowest Energy          :     0.126133527472
   Maximum Energy change  :     0.000571041985 (vector 9)
   Maximum residual norm  :     0.000138768305
   Rebuilding the expansion space

                       ****Iteration   10****
   Time for densities:     0.006
   Time for J+K (Conventional):     0.004
   Time for Sigma-Completion:     0.009
   Size of expansion space: 20
   Lowest Energy          :     0.126133524987
   Maximum Energy change  :     0.000699243194 (vector 9)
   Maximum residual norm  :     0.000310444602
   Rebuilding the expansion space

                       ****Iteration   11****
   Time for densities:     0.006
   Time for J+K (Conventional):     0.005
   Time for Sigma-Completion:     0.009
   Size of expansion space: 20
   Lowest Energy          :     0.126133524432
   Maximum Energy change  :     0.000752314587 (vector 9)
   Maximum residual norm  :     0.000162103620
   Rebuilding the expansion space

                       ****Iteration   12****
   Time for densities:     0.005
   Time for J+K (Conventional):     0.004
   Time for Sigma-Completion:     0.009
   Size of expansion space: 20
   Lowest Energy          :     0.126133524309
   Maximum Energy change  :     0.000949553195 (vector 9)
   Maximum residual norm  :     0.000458651338
   Rebuilding the expansion space

                       ****Iteration   13****
   Time for densities:     0.006
   Time for J+K (Conventional):     0.006
   Time for Sigma-Completion:     0.009
   Size of expansion space: 20
   Lowest Energy          :     0.126133524281
   Maximum Energy change  :     0.000954270226 (vector 9)
   Maximum residual norm  :     0.000155451732
   Rebuilding the expansion space

                       ****Iteration   14****
   Time for densities:     0.006
   Time for J+K (Conventional):     0.004
   Time for Sigma-Completion:     0.009
   Size of expansion space: 20
   Lowest Energy          :     0.126133524275
   Maximum Energy change  :     0.001121745759 (vector 9)
   Maximum residual norm  :     0.000559528307
   Rebuilding the expansion space

                       ****Iteration   15****
   Time for densities:     0.005
   Time for J+K (Conventional):     0.005
   Time for Sigma-Completion:     0.010
   Size of expansion space: 20
   Lowest Energy          :     0.126133524274
   Maximum Energy change  :     0.001000333427 (vector 9)
   Maximum residual norm  :     0.000114791856
   Rebuilding the expansion space

                       ****Iteration   16****
   Time for densities:     0.005
   Time for J+K (Conventional):     0.004
   Time for Sigma-Completion:     0.009
   Size of expansion space: 20
   Lowest Energy          :     0.126133524274
   Maximum Energy change  :     0.000985151460 (vector 9)
   Maximum residual norm  :     0.000467647032
   Rebuilding the expansion space

                       ****Iteration   17****
   Time for densities:     0.005
   Time for J+K (Conventional):     0.004
   Time for Sigma-Completion:     0.009
   Size of expansion space: 20
   Lowest Energy          :     0.126133524273
   Maximum Energy change  :     0.000755557926 (vector 9)
   Maximum residual norm  :     0.000065214125
   Rebuilding the expansion space

                       ****Iteration   18****
   Time for densities:     0.006
   Time for J+K (Conventional):     0.006
   Time for Sigma-Completion:     0.009
   Size of expansion space: 20
   Lowest Energy          :     0.126133524273
   Maximum Energy change  :     0.000627153355 (vector 9)
   Maximum residual norm  :     0.000278191712
   Rebuilding the expansion space

                       ****Iteration   19****
   Time for densities:     0.005
   Time for J+K (Conventional):     0.004
   Time for Sigma-Completion:     0.008
   Size of expansion space: 19
   Lowest Energy          :     0.126133524273
   Maximum Energy change  :     0.000419367734 (vector 9)
   Maximum residual norm  :     0.000029986035
   Rebuilding the expansion space

                       ****Iteration   20****
   Time for densities:     0.006
   Time for J+K (Conventional):     0.005
   Time for Sigma-Completion:     0.009
   Size of expansion space: 19
   Lowest Energy          :     0.126133524273
   Maximum Energy change  :     0.000315400974 (vector 9)
   Maximum residual norm  :     0.000136191457
   Rebuilding the expansion space

                       ****Iteration   21****
   Time for densities:     0.005
   Time for J+K (Conventional):     0.005
   Time for Sigma-Completion:     0.009
   Size of expansion space: 19
   Lowest Energy          :     0.126133524273
   Maximum Energy change  :     0.000197737805 (vector 9)
   Maximum residual norm  :     0.000013287915
   Rebuilding the expansion space

                       ****Iteration   22****
   Time for densities:     0.005
   Time for J+K (Conventional):     0.004
   Time for Sigma-Completion:     0.009
   Size of expansion space: 18
   Lowest Energy          :     0.126133524273
   Maximum Energy change  :     0.000123178201 (vector 9)
   Maximum residual norm  :     0.000054910808
   Rebuilding the expansion space

                       ****Iteration   23****
   Time for densities:     0.005
   Time for J+K (Conventional):     0.004
   Time for Sigma-Completion:     0.008
   Size of expansion space: 18
   Lowest Energy          :     0.126133524273
   Maximum Energy change  :     0.000080310679 (vector 9)
   Maximum residual norm  :     0.000006042326
   Rebuilding the expansion space

                       ****Iteration   24****
   Time for densities:     0.004
   Time for J+K (Conventional):     0.004
   Time for Sigma-Completion:     0.007
   Size of expansion space: 16
   Lowest Energy          :     0.126133524273
   Maximum Energy change  :     0.000052711807 (vector 9)
   Maximum residual norm  :     0.000024297607
   Rebuilding the expansion space

                       ****Iteration   25****
   Time for densities:     0.004
   Time for J+K (Conventional):     0.004
   Time for Sigma-Completion:     0.007
   Size of expansion space: 16
   Lowest Energy          :     0.126133524273
   Maximum Energy change  :     0.000036963470 (vector 9)
   Maximum residual norm  :     0.000003168521
   Rebuilding the expansion space

                       ****Iteration   26****
   Time for densities:     0.004
   Time for J+K (Conventional):     0.005
   Time for Sigma-Completion:     0.008
   Size of expansion space: 16
   Lowest Energy          :     0.126133524273
   Maximum Energy change  :     0.000029649303 (vector 9)
   Maximum residual norm  :     0.000014473761
   Rebuilding the expansion space

                       ****Iteration   27****
   Time for densities:     0.004
   Time for J+K (Conventional):     0.004
   Time for Sigma-Completion:     0.007
   Size of expansion space: 16
   Lowest Energy          :     0.126133524273
   Maximum Energy change  :     0.000021692646 (vector 9)
   Maximum residual norm  :     0.000001887875
   Rebuilding the expansion space

                       ****Iteration   28****
   Time for densities:     0.005
   Time for J+K (Conventional):     0.005
   Time for Sigma-Completion:     0.007
   Size of expansion space: 16
   Lowest Energy          :     0.126133524273
   Maximum Energy change  :     0.000019161165 (vector 9)
   Maximum residual norm  :     0.000010156649
   Rebuilding the expansion space

                       ****Iteration   29****
   Time for densities:     0.004
   Time for J+K (Conventional):     0.004
   Time for Sigma-Completion:     0.007
   Size of expansion space: 16
   Lowest Energy          :     0.126133524273
   Maximum Energy change  :     0.000014815087 (vector 9)
   Maximum residual norm  :     0.000001302513
   Rebuilding the expansion space

                       ****Iteration   30****
   Time for densities:     0.005
   Time for J+K (Conventional):     0.005
   Time for Sigma-Completion:     0.007
   Size of expansion space: 16
   Lowest Energy          :     0.126133524273
   Maximum Energy change  :     0.000014509512 (vector 9)
   Maximum residual norm  :     0.000008488774
   Rebuilding the expansion space

                       ****Iteration   31****
   Time for densities:     0.004
   Time for J+K (Conventional):     0.004
   Time for Sigma-Completion:     0.006
   Size of expansion space: 15
   Lowest Energy          :     0.126133524273
   Maximum Energy change  :     0.000011997699 (vector 9)
   Maximum residual norm  :     0.000001045695

                       ****Iteration   32****
   Time for densities:     0.002
   Time for J+K (Conventional):     0.003
   Time for Sigma-Completion:     0.002
   Size of expansion space: 20
   Lowest Energy          :     0.126133524273
   Maximum Energy change  :     0.000199638011 (vector 9)
   Maximum residual norm  :     0.000073215171
   Rebuilding the expansion space

                       ****Iteration   33****
   Time for densities:     0.004
   Time for J+K (Conventional):     0.004
   Time for Sigma-Completion:     0.006
   Size of expansion space: 15
   Lowest Energy          :     0.126133524273
   Maximum Energy change  :     0.000081595174 (vector 9)
   Maximum residual norm  :     0.000001267135

                       ****Iteration   34****
   Time for densities:     0.002
   Time for J+K (Conventional):     0.003
   Time for Sigma-Completion:     0.002
   Size of expansion space: 20
   Lowest Energy          :     0.126133524273
   Maximum Energy change  :     0.000007181276 (vector 9)
   Maximum residual norm  :     0.000001132598
   Rebuilding the expansion space

                       ****Iteration   35****
   Time for densities:     0.004
   Time for J+K (Conventional):     0.004
   Time for Sigma-Completion:     0.006
   Size of expansion space: 14
   Lowest Energy          :     0.126133524273
   Maximum Energy change  :     0.000003554046 (vector 9)
   Maximum residual norm  :     0.000000715729

                       ****Iteration   36****
   Time for densities:     0.001
   Time for J+K (Conventional):     0.004
   Time for Sigma-Completion:     0.002
   Size of expansion space: 18
   Lowest Energy          :     0.126133524273
   Maximum Energy change  :     0.000005169921 (vector 9)
   Maximum residual norm  :     0.000000934138
   Rebuilding the expansion space

                       ****Iteration   37****
   Time for densities:     0.004
   Time for J+K (Conventional):     0.004
   Time for Sigma-Completion:     0.006
   Size of expansion space: 14
   Lowest Energy          :     0.126133524273
   Maximum Energy change  :     0.000003143117 (vector 9)
   Maximum residual norm  :     0.000000349110

                       ****Iteration   38****
   Time for densities:     0.001
   Time for J+K (Conventional):     0.003
   Time for Sigma-Completion:     0.001
   Size of expansion space: 17
   Lowest Energy          :     0.126133524273
   Maximum Energy change  :     0.000001738804 (vector 9)
   Maximum residual norm  :     0.000000379117
   Rebuilding the expansion space

                       ****Iteration   39****
   Time for densities:     0.004
   Time for J+K (Conventional):     0.003
   Time for Sigma-Completion:     0.006
   Size of expansion space: 13
   Lowest Energy          :     0.126133524273
   Maximum Energy change  :     0.000001469295 (vector 9)
   Maximum residual norm  :     0.000000315823

                       ****Iteration   40****
   Time for densities:     0.001
   Time for J+K (Conventional):     0.003
   Time for Sigma-Completion:     0.001
   Size of expansion space: 16
   Lowest Energy          :     0.126133524273
   Maximum Energy change  :     0.000002667539 (vector 9)
   Maximum residual norm  :     0.000000530556
   Rebuilding the expansion space

                       ****Iteration   41****
   Time for densities:     0.004
   Time for J+K (Conventional):     0.005
   Time for Sigma-Completion:     0.006
   Size of expansion space: 13
   Lowest Energy          :     0.126133524273
   Maximum Energy change  :     0.000002253357 (vector 9)
   Maximum residual norm  :     0.000000270781

                       ****Iteration   42****
   Time for densities:     0.001
   Time for J+K (Conventional):     0.003
   Time for Sigma-Completion:     0.001
   Size of expansion space: 16
   Lowest Energy          :     0.126133524273
   Maximum Energy change  :     0.000001286318 (vector 9)
   Maximum residual norm  :     0.000000296163
   Rebuilding the expansion space

                       ****Iteration   43****
   Time for densities:     0.003
   Time for J+K (Conventional):     0.004
   Time for Sigma-Completion:     0.006
   Size of expansion space: 13
   Lowest Energy          :     0.126133524273
   Maximum Energy change  :     0.000001189201 (vector 9)
   Maximum residual norm  :     0.000000278895

                       ****Iteration   44****
   Time for densities:     0.001
   Time for J+K (Conventional):     0.003
   Time for Sigma-Completion:     0.001
   Size of expansion space: 16
   Lowest Energy          :     0.126133524273
   Maximum Energy change  :     0.000002283212 (vector 9)
   Maximum residual norm  :     0.000000477849
   Rebuilding the expansion space

                       ****Iteration   45****
   Time for densities:     0.003
   Time for J+K (Conventional):     0.003
   Time for Sigma-Completion:     0.006
   Size of expansion space: 13
   Lowest Energy          :     0.126133524273
   Maximum Energy change  :     0.000002017247 (vector 9)
   Maximum residual norm  :     0.000000255551

                       ****Iteration   46****
   Time for densities:     0.001
   Time for J+K (Conventional):     0.003
   Time for Sigma-Completion:     0.001
   Size of expansion space: 15
   Lowest Energy          :     0.126133524273
   Maximum Energy change  :     0.000001067117 (vector 9)
   Maximum residual norm  :     0.000000229564

      *** CONVERGENCE OF RESIDUAL NORM REACHED ***

Storing the converged CI vectors               ... BEUGBYXJXMVRFO-UHFFFAOYSA-N.cis1

                 *** DAVIDSON DONE ***

Total time for solving the CIS problem:     1.113sec

-----------------------------
CIS-EXCITED STATES (SINGLETS)
-----------------------------

the weight of the individual excitations are printed if larger than 0.01

STATE  1:  E=   0.126134 au      3.432 eV    27683.1 cm**-1
    38a ->  43a  :     0.681033 (c= -0.82524705)
    38a ->  47a  :     0.184380 (c= -0.42939509)
    40a ->  43a  :     0.046837 (c= -0.21641931)
    42a ->  43a  :     0.013832 (c=  0.11760824)

STATE  2:  E=   0.153704 au      4.183 eV    33734.2 cm**-1
    37a ->  43a  :     0.011168 (c= -0.10567763)
    41a ->  43a  :     0.013721 (c= -0.11713467)
    42a ->  43a  :     0.778061 (c= -0.88207754)
    42a ->  44a  :     0.057711 (c= -0.24023033)
    42a ->  45a  :     0.047839 (c=  0.21872182)

STATE  3:  E=   0.157399 au      4.283 eV    34545.0 cm**-1
    39a ->  43a  :     0.120769 (c=  0.34751791)
    39a ->  44a  :     0.031022 (c=  0.17612957)
    39a ->  45a  :     0.045710 (c= -0.21380000)
    39a ->  47a  :     0.012115 (c= -0.11006933)
    40a ->  43a  :     0.033878 (c= -0.18405871)
    41a ->  43a  :     0.098727 (c=  0.31420886)
    41a ->  44a  :     0.015906 (c=  0.12611732)
    42a ->  44a  :     0.164029 (c=  0.40500442)
    42a ->  45a  :     0.132312 (c=  0.36374751)
    42a ->  46a  :     0.293942 (c=  0.54216397)

STATE  4:  E=   0.167084 au      4.547 eV    36670.7 cm**-1
    39a ->  43a  :     0.088900 (c=  0.29816123)
    39a ->  45a  :     0.052945 (c=  0.23009816)
    40a ->  43a  :     0.218468 (c=  0.46740568)
    40a ->  44a  :     0.180237 (c= -0.42454279)
    40a ->  45a  :     0.022349 (c=  0.14949488)
    40a ->  46a  :     0.029618 (c=  0.17209918)
    40a ->  47a  :     0.012804 (c= -0.11315667)
    41a ->  43a  :     0.043556 (c= -0.20870021)
    41a ->  44a  :     0.032707 (c= -0.18085205)
    41a ->  45a  :     0.141197 (c= -0.37576157)
    41a ->  46a  :     0.120209 (c=  0.34671192)
    42a ->  45a  :     0.021230 (c=  0.14570619)

STATE  5:  E=   0.179157 au      4.875 eV    39320.5 cm**-1
    38a ->  43a  :     0.044405 (c= -0.21072465)
    39a ->  43a  :     0.032662 (c= -0.18072511)
    39a ->  44a  :     0.013026 (c=  0.11413348)
    40a ->  43a  :     0.153773 (c=  0.39213912)
    40a ->  45a  :     0.045947 (c=  0.21435157)
    40a ->  46a  :     0.024953 (c= -0.15796559)
    41a ->  43a  :     0.518631 (c=  0.72016006)
    41a ->  44a  :     0.050550 (c= -0.22483234)
    41a ->  45a  :     0.029306 (c=  0.17118901)
    42a ->  43a  :     0.011969 (c= -0.10940519)
    42a ->  46a  :     0.010003 (c= -0.10001641)

STATE  6:  E=   0.193353 au      5.261 eV    42436.1 cm**-1
    37a ->  43a  :     0.037166 (c= -0.19278602)
    39a ->  44a  :     0.022651 (c= -0.15050236)
    39a ->  46a  :     0.021439 (c= -0.14642221)
    41a ->  43a  :     0.010701 (c= -0.10344546)
    41a ->  45a  :     0.012325 (c= -0.11101756)
    42a ->  43a  :     0.092707 (c= -0.30447823)
    42a ->  44a  :     0.256977 (c=  0.50692942)
    42a ->  45a  :     0.228007 (c= -0.47750097)
    42a ->  47a  :     0.242826 (c= -0.49277359)

STATE  7:  E=   0.199004 au      5.415 eV    43676.4 cm**-1
    39a ->  43a  :     0.290905 (c= -0.53935596)
    40a ->  43a  :     0.098717 (c=  0.31419204)
    40a ->  44a  :     0.021604 (c=  0.14698205)
    40a ->  46a  :     0.016476 (c= -0.12835844)
    41a ->  43a  :     0.141215 (c= -0.37578612)
    41a ->  44a  :     0.017729 (c= -0.13315043)
    41a ->  45a  :     0.037273 (c=  0.19306117)
    42a ->  44a  :     0.080447 (c=  0.28363217)
    42a ->  45a  :     0.105156 (c=  0.32427746)
    42a ->  46a  :     0.122075 (c=  0.34939253)

STATE  8:  E=   0.205951 au      5.604 eV    45201.0 cm**-1
    38a ->  43a  :     0.016279 (c=  0.12758750)
    39a ->  43a  :     0.014458 (c=  0.12024223)
    39a ->  44a  :     0.044506 (c=  0.21096444)
    39a ->  46a  :     0.081002 (c= -0.28460860)
    40a ->  43a  :     0.118253 (c= -0.34387863)
    40a ->  44a  :     0.029327 (c=  0.17125233)
    40a ->  45a  :     0.156371 (c=  0.39543830)
    40a ->  46a  :     0.068073 (c= -0.26090788)
    40a ->  47a  :     0.034970 (c= -0.18700201)
    41a ->  43a  :     0.026036 (c= -0.16135566)
    41a ->  44a  :     0.248551 (c= -0.49854852)
    41a ->  46a  :     0.025667 (c=  0.16020926)
    41a ->  47a  :     0.060211 (c= -0.24537995)
    42a ->  46a  :     0.024408 (c= -0.15622946)

STATE  9:  E=   0.210154 au      5.719 eV    46123.4 cm**-1
    39a ->  43a  :     0.248934 (c= -0.49893243)
    39a ->  45a  :     0.018118 (c=  0.13460213)
    40a ->  43a  :     0.224092 (c= -0.47338322)
    40a ->  44a  :     0.066472 (c= -0.25782095)
    40a ->  45a  :     0.052012 (c= -0.22806198)
    40a ->  46a  :     0.053861 (c=  0.23208047)
    40a ->  47a  :     0.019887 (c= -0.14102172)
    41a ->  43a  :     0.052450 (c=  0.22901997)
    41a ->  44a  :     0.044913 (c= -0.21192653)
    41a ->  45a  :     0.055912 (c= -0.23645632)
    41a ->  46a  :     0.088281 (c=  0.29712082)
    41a ->  47a  :     0.019587 (c=  0.13995534)

STATE 10:  E=   0.217053 au      5.906 eV    47637.6 cm**-1
    37a ->  43a  :     0.020320 (c=  0.14254734)
    39a ->  44a  :     0.124884 (c= -0.35338961)
    39a ->  45a  :     0.046023 (c= -0.21452856)
    39a ->  46a  :     0.173134 (c= -0.41609425)
    40a ->  44a  :     0.081006 (c=  0.28461474)
    40a ->  46a  :     0.032118 (c=  0.17921514)
    41a ->  44a  :     0.017350 (c= -0.13171895)
    41a ->  45a  :     0.109488 (c= -0.33088997)
    41a ->  46a  :     0.082432 (c= -0.28711044)
    41a ->  47a  :     0.019623 (c=  0.14008074)
    42a ->  45a  :     0.029780 (c=  0.17256745)
    42a ->  47a  :     0.012238 (c=  0.11062405)
    42a ->  48a  :     0.064669 (c= -0.25430147)
    42a ->  49a  :     0.068044 (c=  0.26085235)
    42a ->  51a  :     0.014408 (c=  0.12003153)


                  ********************************
                  * Entering triplet calculation *
                  ********************************

------------------------
DAVIDSON-DIAGONALIZATION
------------------------

Dimension of the eigenvalue problem            ...   1720
Number of roots to be determined               ...     10
Maximum size of the expansion space            ...     25
Convergence tolerance for the residual         ...    2.500e-07
Convergence tolerance for the energies         ...    2.500e-07
Orthogonality tolerance                        ...    1.000e-14
Level Shift                                    ...    0.000e+00
Constructing the preconditioner                ... o.k.
Building the initial guess                     ... o.k.
Number of trial vectors determined             ...     20


                       ****Iteration    0****
                <<< Triplet sigma vectors requested >>>

   Memory handling for direct AO based CIS:
   Memory per vector needed      ...     1 MB
   Memory needed                 ...     3 MB
   Memory available              ...   512 MB
   Number of vectors per batch   ...   512
   Number of batches             ...     1
   Time for densities:     0.007
   Time for K (Conventional):     0.004
   Time for Sigma-Completion:     0.009
   Size of expansion space: 20
   Lowest Energy          :     0.098578167063
   Maximum Energy change  :     0.178770522200 (vector 9)
   Maximum residual norm  :     0.007393746318
   Rebuilding the expansion space

                       ****Iteration    1****
   Time for densities:     0.006
   Time for K (Conventional):     0.005
   Time for Sigma-Completion:     0.010
   Size of expansion space: 20
   Lowest Energy          :     0.076855147660
   Maximum Energy change  :     0.028468369653 (vector 1)
   Maximum residual norm  :     0.000575641820
   Rebuilding the expansion space

                       ****Iteration    2****
   Time for densities:     0.005
   Time for K (Conventional):     0.004
   Time for Sigma-Completion:     0.009
   Size of expansion space: 20
   Lowest Energy          :     0.076243979805
   Maximum Energy change  :     0.004059734773 (vector 8)
   Maximum residual norm  :     0.000355507832
   Rebuilding the expansion space

                       ****Iteration    3****
   Time for densities:     0.005
   Time for K (Conventional):     0.004
   Time for Sigma-Completion:     0.009
   Size of expansion space: 20
   Lowest Energy          :     0.076192259685
   Maximum Energy change  :     0.002402764990 (vector 8)
   Maximum residual norm  :     0.000155054007
   Rebuilding the expansion space

                       ****Iteration    4****
   Time for densities:     0.005
   Time for K (Conventional):     0.004
   Time for Sigma-Completion:     0.009
   Size of expansion space: 20
   Lowest Energy          :     0.076186531414
   Maximum Energy change  :     0.001195694240 (vector 8)
   Maximum residual norm  :     0.000111955020
   Rebuilding the expansion space

                       ****Iteration    5****
   Time for densities:     0.006
   Time for K (Conventional):     0.004
   Time for Sigma-Completion:     0.009
   Size of expansion space: 20
   Lowest Energy          :     0.076185755868
   Maximum Energy change  :     0.000582805247 (vector 8)
   Maximum residual norm  :     0.000044717368
   Rebuilding the expansion space

                       ****Iteration    6****
   Time for densities:     0.005
   Time for K (Conventional):     0.004
   Time for Sigma-Completion:     0.011
   Size of expansion space: 20
   Lowest Energy          :     0.076185643726
   Maximum Energy change  :     0.000277482930 (vector 8)
   Maximum residual norm  :     0.000034297600
   Rebuilding the expansion space

                       ****Iteration    7****
   Time for densities:     0.007
   Time for K (Conventional):     0.004
   Time for Sigma-Completion:     0.010
   Size of expansion space: 20
   Lowest Energy          :     0.076185625949
   Maximum Energy change  :     0.000133206187 (vector 8)
   Maximum residual norm  :     0.000013380947
   Rebuilding the expansion space

                       ****Iteration    8****
   Time for densities:     0.007
   Time for K (Conventional):     0.004
   Time for Sigma-Completion:     0.010
   Size of expansion space: 20
   Lowest Energy          :     0.076185623040
   Maximum Energy change  :     0.000065500470 (vector 8)
   Maximum residual norm  :     0.000011402368
   Rebuilding the expansion space

                       ****Iteration    9****
   Time for densities:     0.008
   Time for K (Conventional):     0.004
   Time for Sigma-Completion:     0.010
   Size of expansion space: 20
   Lowest Energy          :     0.076185622527
   Maximum Energy change  :     0.000032650246 (vector 8)
   Maximum residual norm  :     0.000004382707
   Rebuilding the expansion space

                       ****Iteration   10****
   Time for densities:     0.008
   Time for K (Conventional):     0.006
   Time for Sigma-Completion:     0.010
   Size of expansion space: 20
   Lowest Energy          :     0.076185622434
   Maximum Energy change  :     0.000016991383 (vector 8)
   Maximum residual norm  :     0.000004567354
   Rebuilding the expansion space

                       ****Iteration   11****
   Time for densities:     0.007
   Time for K (Conventional):     0.004
   Time for Sigma-Completion:     0.011
   Size of expansion space: 20
   Lowest Energy          :     0.076185622415
   Maximum Energy change  :     0.000011188932 (vector 9)
   Maximum residual norm  :     0.000002248894
   Rebuilding the expansion space

                       ****Iteration   12****
   Time for densities:     0.007
   Time for K (Conventional):     0.004
   Time for Sigma-Completion:     0.010
   Size of expansion space: 20
   Lowest Energy          :     0.076185622412
   Maximum Energy change  :     0.000007714106 (vector 9)
   Maximum residual norm  :     0.000002309630
   Rebuilding the expansion space

                       ****Iteration   13****
   Time for densities:     0.007
   Time for K (Conventional):     0.004
   Time for Sigma-Completion:     0.010
   Size of expansion space: 20
   Lowest Energy          :     0.076185622411
   Maximum Energy change  :     0.000005464839 (vector 9)
   Maximum residual norm  :     0.000001220649
   Rebuilding the expansion space

                       ****Iteration   14****
   Time for densities:     0.008
   Time for K (Conventional):     0.004
   Time for Sigma-Completion:     0.010
   Size of expansion space: 20
   Lowest Energy          :     0.076185622411
   Maximum Energy change  :     0.000003796328 (vector 9)
   Maximum residual norm  :     0.000001174850
   Rebuilding the expansion space

                       ****Iteration   15****
   Time for densities:     0.007
   Time for K (Conventional):     0.006
   Time for Sigma-Completion:     0.010
   Size of expansion space: 20
   Lowest Energy          :     0.076185622411
   Maximum Energy change  :     0.000002731823 (vector 9)
   Maximum residual norm  :     0.000000692059
   Rebuilding the expansion space

                       ****Iteration   16****
   Time for densities:     0.007
   Time for K (Conventional):     0.005
   Time for Sigma-Completion:     0.011
   Size of expansion space: 20
   Lowest Energy          :     0.076185622411
   Maximum Energy change  :     0.000001914302 (vector 9)
   Maximum residual norm  :     0.000000613880
   Rebuilding the expansion space

                       ****Iteration   17****
   Time for densities:     0.006
   Time for K (Conventional):     0.004
   Time for Sigma-Completion:     0.010
   Size of expansion space: 19
   Lowest Energy          :     0.076185622411
   Maximum Energy change  :     0.000001394249 (vector 9)
   Maximum residual norm  :     0.000000398835
   Rebuilding the expansion space

                       ****Iteration   18****
   Time for densities:     0.006
   Time for K (Conventional):     0.006
   Time for Sigma-Completion:     0.011
   Size of expansion space: 19
   Lowest Energy          :     0.076185622411
   Maximum Energy change  :     0.000000988842 (vector 9)
   Maximum residual norm  :     0.000000325448
   Rebuilding the expansion space

                       ****Iteration   19****
   Time for densities:     0.006
   Time for K (Conventional):     0.004
   Time for Sigma-Completion:     0.009
   Size of expansion space: 18
   Lowest Energy          :     0.076185622411
   Maximum Energy change  :     0.000000725735 (vector 9)
   Maximum residual norm  :     0.000000225987

      *** CONVERGENCE OF RESIDUAL NORM REACHED ***

Storing the converged CI vectors               ... BEUGBYXJXMVRFO-UHFFFAOYSA-N.cis3

                 *** DAVIDSON DONE ***

-----------------------------
CIS EXCITED STATES (TRIPLETS)
-----------------------------

the weight of the individual excitations are printed if larger than 0.01

STATE  1:  E=   0.076186 au      2.073 eV    16720.8 cm**-1
    37a ->  43a  :     0.026338 (c= -0.16228852)
    39a ->  44a  :     0.063629 (c=  0.25224754)
    39a ->  45a  :     0.031069 (c=  0.17626292)
    39a ->  46a  :     0.088986 (c=  0.29830591)
    40a ->  46a  :     0.023308 (c= -0.15267031)
    41a ->  44a  :     0.010537 (c=  0.10264879)
    41a ->  45a  :     0.018502 (c=  0.13602093)
    41a ->  46a  :     0.037449 (c=  0.19351806)
    42a ->  43a  :     0.301028 (c= -0.54865991)
    42a ->  44a  :     0.090834 (c= -0.30138639)
    42a ->  45a  :     0.132192 (c=  0.36358173)
    42a ->  47a  :     0.074703 (c=  0.27331867)

STATE  2:  E=   0.080579 au      2.193 eV    17685.0 cm**-1
    32a ->  50a  :     0.010622 (c=  0.10306195)
    39a ->  43a  :     0.012453 (c= -0.11159276)
    39a ->  44a  :     0.057470 (c=  0.23972942)
    39a ->  46a  :     0.054188 (c= -0.23278365)
    40a ->  43a  :     0.041502 (c=  0.20372053)
    40a ->  44a  :     0.024990 (c=  0.15808359)
    40a ->  45a  :     0.188638 (c=  0.43432464)
    40a ->  46a  :     0.112258 (c= -0.33504993)
    41a ->  43a  :     0.147059 (c=  0.38348249)
    41a ->  44a  :     0.166502 (c= -0.40804682)
    41a ->  45a  :     0.044579 (c=  0.21113842)
    41a ->  46a  :     0.014403 (c=  0.12001435)
    41a ->  47a  :     0.031839 (c= -0.17843471)

STATE  3:  E=   0.113832 au      3.098 eV    24983.1 cm**-1
    38a ->  43a  :     0.643233 (c= -0.80201789)
    38a ->  47a  :     0.185661 (c= -0.43088447)
    40a ->  43a  :     0.055167 (c= -0.23487592)
    40a ->  47a  :     0.010598 (c= -0.10294513)
    42a ->  43a  :     0.011274 (c=  0.10617755)

STATE  4:  E=   0.125589 au      3.417 eV    27563.5 cm**-1
    38a ->  43a  :     0.010438 (c= -0.10216867)
    39a ->  44a  :     0.053086 (c= -0.23040323)
    39a ->  45a  :     0.105934 (c= -0.32547463)
    39a ->  46a  :     0.152310 (c= -0.39026930)
    40a ->  44a  :     0.012514 (c=  0.11186545)
    40a ->  46a  :     0.045862 (c=  0.21415388)
    41a ->  44a  :     0.035220 (c= -0.18766934)
    41a ->  45a  :     0.034717 (c= -0.18632439)
    41a ->  46a  :     0.061035 (c= -0.24705322)
    42a ->  43a  :     0.215653 (c= -0.46438449)
    42a ->  44a  :     0.134161 (c= -0.36628055)
    42a ->  46a  :     0.073071 (c= -0.27031566)

STATE  5:  E=   0.127311 au      3.464 eV    27941.4 cm**-1
    37a ->  46a  :     0.010186 (c= -0.10092372)
    39a ->  43a  :     0.057823 (c=  0.24046342)
    39a ->  44a  :     0.078618 (c=  0.28038957)
    39a ->  46a  :     0.042782 (c=  0.20683735)
    39a ->  47a  :     0.016936 (c= -0.13013818)
    40a ->  44a  :     0.012739 (c= -0.11286797)
    41a ->  43a  :     0.023354 (c=  0.15282109)
    41a ->  44a  :     0.025251 (c=  0.15890626)
    42a ->  43a  :     0.046799 (c=  0.21633109)
    42a ->  44a  :     0.115607 (c= -0.34000987)
    42a ->  45a  :     0.187505 (c= -0.43301890)
    42a ->  46a  :     0.309242 (c= -0.55609501)

STATE  6:  E=   0.133562 au      3.634 eV    29313.5 cm**-1
    38a ->  43a  :     0.010546 (c= -0.10269387)
    39a ->  43a  :     0.063770 (c=  0.25252770)
    39a ->  44a  :     0.073701 (c= -0.27147924)
    40a ->  43a  :     0.229612 (c=  0.47917810)
    40a ->  44a  :     0.023486 (c= -0.15325000)
    40a ->  45a  :     0.219136 (c=  0.46811953)
    40a ->  46a  :     0.018366 (c= -0.13551944)
    40a ->  47a  :     0.026595 (c= -0.16307929)
    41a ->  43a  :     0.029767 (c= -0.17252988)
    41a ->  44a  :     0.122357 (c=  0.34979539)
    41a ->  45a  :     0.014975 (c=  0.12237332)
    41a ->  46a  :     0.115467 (c= -0.33980435)

STATE  7:  E=   0.135081 au      3.676 eV    29646.8 cm**-1
    38a ->  43a  :     0.018839 (c= -0.13725611)
    39a ->  45a  :     0.054313 (c= -0.23305043)
    39a ->  46a  :     0.058647 (c=  0.24217046)
    40a ->  43a  :     0.031957 (c=  0.17876559)
    40a ->  44a  :     0.232086 (c= -0.48175314)
    40a ->  45a  :     0.025913 (c= -0.16097399)
    40a ->  46a  :     0.143068 (c=  0.37824322)
    41a ->  43a  :     0.188627 (c=  0.43431239)
    41a ->  44a  :     0.013916 (c= -0.11796513)
    41a ->  45a  :     0.147268 (c=  0.38375471)
    41a ->  46a  :     0.011153 (c= -0.10560733)
    41a ->  47a  :     0.015538 (c= -0.12465196)

STATE  8:  E=   0.148605 au      4.044 eV    32614.9 cm**-1
    39a ->  43a  :     0.331114 (c= -0.57542476)
    39a ->  44a  :     0.023938 (c= -0.15471930)
    39a ->  45a  :     0.066747 (c=  0.25835424)
    39a ->  50a  :     0.036128 (c=  0.19007270)
    39a ->  51a  :     0.015521 (c= -0.12458156)
    39a ->  52a  :     0.012261 (c=  0.11072732)
    40a ->  43a  :     0.054717 (c=  0.23391571)
    40a ->  45a  :     0.016274 (c= -0.12756948)
    41a ->  43a  :     0.129296 (c= -0.35957771)
    41a ->  44a  :     0.036922 (c= -0.19215017)
    41a ->  45a  :     0.030831 (c=  0.17558703)
    41a ->  50a  :     0.010539 (c=  0.10266036)
    42a ->  44a  :     0.040462 (c= -0.20115072)
    42a ->  45a  :     0.030907 (c= -0.17580362)
    42a ->  46a  :     0.066239 (c= -0.25736857)

STATE  9:  E=   0.156264 au      4.252 eV    34295.9 cm**-1
    29a ->  43a  :     0.010250 (c=  0.10124320)
    31a ->  47a  :     0.010281 (c=  0.10139368)
    33a ->  43a  :     0.030911 (c= -0.17581598)
    34a ->  43a  :     0.034992 (c=  0.18706088)
    35a ->  43a  :     0.054802 (c= -0.23409849)
    35a ->  47a  :     0.010551 (c= -0.10271921)
    36a ->  43a  :     0.039076 (c=  0.19767612)
    37a ->  43a  :     0.071475 (c=  0.26734901)
    37a ->  47a  :     0.017283 (c=  0.13146463)
    39a ->  43a  :     0.010943 (c=  0.10460835)
    39a ->  45a  :     0.016490 (c= -0.12841520)
    40a ->  44a  :     0.011997 (c= -0.10953016)
    40a ->  46a  :     0.016882 (c=  0.12992985)
    40a ->  47a  :     0.010763 (c= -0.10374269)
    41a ->  43a  :     0.021447 (c= -0.14644780)
    41a ->  44a  :     0.040538 (c= -0.20134145)
    41a ->  47a  :     0.040202 (c= -0.20050404)
    42a ->  43a  :     0.099772 (c=  0.31586770)
    42a ->  44a  :     0.049133 (c= -0.22165854)
    42a ->  45a  :     0.075538 (c=  0.27484187)
    42a ->  47a  :     0.218099 (c=  0.46701029)
    42a ->  50a  :     0.015565 (c= -0.12475992)

STATE 10:  E=   0.167090 au      4.547 eV    36671.9 cm**-1
    39a ->  43a  :     0.054129 (c= -0.23265705)
    39a ->  45a  :     0.042377 (c= -0.20585653)
    39a ->  46a  :     0.015879 (c=  0.12601248)
    40a ->  43a  :     0.144647 (c= -0.38032483)
    40a ->  44a  :     0.121869 (c=  0.34909794)
    40a ->  46a  :     0.043781 (c= -0.20924025)
    40a ->  50a  :     0.014760 (c= -0.12149096)
    41a ->  44a  :     0.086082 (c=  0.29339667)
    41a ->  45a  :     0.198388 (c=  0.44540810)
    41a ->  46a  :     0.193038 (c= -0.43936098)


----------------------
CIS-EXCITATION SPECTRA
----------------------

Center of mass = (  0.8954,  0.2279, -0.4505)
Calculating the Dipole integrals                  ... done
Transforming integrals                            ... done
Calculating the Linear Momentum integrals         ... done
Transforming integrals                            ... done
Calculating angular momentum integrals            ... done
Transforming integrals                            ... done

-----------------------------------------------------------------------------
         ABSORPTION SPECTRUM VIA TRANSITION ELECTRIC DIPOLE MOMENTS
-----------------------------------------------------------------------------
State   Energy  Wavelength   fosc         T2         TX        TY        TZ  
        (cm-1)    (nm)                  (au**2)     (au)      (au)      (au) 
-----------------------------------------------------------------------------
   1   27683.1    361.2   0.001796843   0.02137   0.07417   0.08139  -0.09614
   2   33734.2    296.4   0.356599392   3.48005  -1.81218  -0.11418   0.42783
   3   34545.0    289.5   0.004226770   0.04028  -0.14489   0.12870   0.05220
   4   36670.7    272.7   0.005740470   0.05154  -0.13256  -0.01203  -0.18390
   5   39320.5    254.3   0.190271735   1.59305   0.85332  -0.68068   0.63369
   6   42436.1    235.6   0.024278223   0.18835  -0.39197   0.18624   0.00509
   7   43676.4    229.0   0.354471171   2.67184  -0.41338   1.47537  -0.56942
   8   45201.0    221.2   0.207319385   1.50997  -1.18652   0.31817  -0.03026
   9   46123.4    216.8   0.229053947   1.63490  -0.39605   0.42453   1.13922
  10   47637.6    209.9   0.452861736   3.12962  -1.72780  -0.06572   0.37418
  11   16720.8    598.1   spin forbidden (mult=3)
  12   17685.0    565.5   spin forbidden (mult=3)
  13   24983.1    400.3   spin forbidden (mult=3)
  14   27563.5    362.8   spin forbidden (mult=3)
  15   27941.4    357.9   spin forbidden (mult=3)
  16   29313.5    341.1   spin forbidden (mult=3)
  17   29646.8    337.3   spin forbidden (mult=3)
  18   32614.9    306.6   spin forbidden (mult=3)
  19   34295.9    291.6   spin forbidden (mult=3)
  20   36671.9    272.7   spin forbidden (mult=3)

-----------------------------------------------------------------------------
         ABSORPTION SPECTRUM VIA TRANSITION VELOCITY DIPOLE MOMENTS
-----------------------------------------------------------------------------
State   Energy  Wavelength   fosc         P2         PX        PY        PZ  
        (cm-1)    (nm)                  (au**2)     (au)      (au)      (au) 
-----------------------------------------------------------------------------
   1   27683.1    361.2   0.002155803   0.00041  -0.01136  -0.00976   0.01355
   2   33734.2    296.4   0.234512463   0.05407   0.23025   0.00089  -0.03244
   3   34545.0    289.5   0.001912357   0.00045   0.01866  -0.00955  -0.00348
   4   36670.7    272.7   0.003776436   0.00095   0.02833   0.00202   0.01181
   5   39320.5    254.3   0.075746371   0.02036  -0.11081   0.06311  -0.06399
   6   42436.1    235.6   0.003381717   0.00098   0.02102  -0.01905   0.01327
   7   43676.4    229.0   0.087353532   0.02608   0.05226  -0.14474   0.04893
   8   45201.0    221.2   0.095428641   0.02948   0.16689  -0.03944   0.00847
   9   46123.4    216.8   0.058753817   0.01852   0.03389  -0.04170  -0.12503
  10   47637.6    209.9   0.244650924   0.07965   0.27425  -0.00410  -0.06650
  11   16720.8    598.1   spin forbidden (mult=3)
  12   17685.0    565.5   spin forbidden (mult=3)
  13   24983.1    400.3   spin forbidden (mult=3)
  14   27563.5    362.8   spin forbidden (mult=3)
  15   27941.4    357.9   spin forbidden (mult=3)
  16   29313.5    341.1   spin forbidden (mult=3)
  17   29646.8    337.3   spin forbidden (mult=3)
  18   32614.9    306.6   spin forbidden (mult=3)
  19   34295.9    291.6   spin forbidden (mult=3)
  20   36671.9    272.7   spin forbidden (mult=3)

-------------------------------------------------------------------
                             CD SPECTRUM
-------------------------------------------------------------------
State   Energy Wavelength       R         MX        MY        MZ   
        (cm-1)   (nm)       (1e40*sgs)   (au)      (au)      (au)  
-------------------------------------------------------------------
   1   27683.1    361.2    -24.52764  -0.08796  -0.22032   0.28677
   2   33734.2    296.4     42.10389  -0.02251   0.16297   0.15689
   3   34545.0    289.5      2.63069   0.02604   0.03136   0.10186
   4   36670.7    272.7     -4.67561   0.02267   0.10324   0.03084
   5   39320.5    254.3     40.28663   0.00452  -0.22920  -0.11744
   6   42436.1    235.6      6.20693  -0.04077  -0.01460  -0.01912
   7   43676.4    229.0     27.64573   0.02751  -0.00603  -0.13858
   8   45201.0    221.2     38.32224  -0.05170   0.08035   0.18578
   9   46123.4    216.8    -133.62887  -0.11016  -0.56974  -0.07479
  10   47637.6    209.9    -23.61167   0.05392   0.21837   0.15347
  11   16720.8    598.1 spin forbidden
  12   17685.0    565.5 spin forbidden
  13   24983.1    400.3 spin forbidden
  14   27563.5    362.8 spin forbidden
  15   27941.4    357.9 spin forbidden
  16   29313.5    341.1 spin forbidden
  17   29646.8    337.3 spin forbidden
  18   32614.9    306.6 spin forbidden
  19   34295.9    291.6 spin forbidden
  20   36671.9    272.7 spin forbidden

Total run time:        2.235 sec

           *** ORCA-CIS/TD-DFT FINISHED WITHOUT ERROR ***

-----------------------
CIS/TD-DFT TOTAL ENERGY
-----------------------

    E(SCF)  =     10.013766907 Eh
    DE(CIS) =      0.126133524 Eh (Root  1)
    ----------------------------- ---------
    E(tot)  =     10.139900431 Eh


-------------------------   --------------------
FINAL SINGLE POINT ENERGY        10.139900431480
-------------------------   --------------------


                            ***************************************
                            *     ORCA property calculations      *
                            ***************************************

                                    ---------------------
                                    Active property flags
                                    ---------------------
   (+) Dipole Moment


------------------------------------------------------------------------------
                       ORCA ELECTRIC PROPERTIES CALCULATION
------------------------------------------------------------------------------

Dipole Moment Calculation                       ... on
Quadrupole Moment Calculation                   ... off
Polarizability Calculation                      ... off
GBWName                                         ... BEUGBYXJXMVRFO-UHFFFAOYSA-N.gbw
Electron density file                           ... BEUGBYXJXMVRFO-UHFFFAOYSA-N.scfp.tmp

-------------
DIPOLE MOMENT
-------------
                                X             Y             Z
Electronic contribution:     36.31812      13.01045     -17.33632
Nuclear contribution   :    -21.39208      -3.25573       5.26670
                        -----------------------------------------
Total Dipole Moment    :     14.92604       9.75472     -12.06961
                        -----------------------------------------
Magnitude (a.u.)       :     21.53176
Magnitude (Debye)      :     54.72939


Timings for individual modules:

Sum of individual times         ...        2.328 sec (=   0.039 min)
STO integral calculation        ...        0.011 sec (=   0.000 min)   0.5 %
SCF iterations                  ...        0.074 sec (=   0.001 min)   3.2 %
CIS module                      ...        2.243 sec (=   0.037 min)  96.3 %
                             ****ORCA TERMINATED NORMALLY****
TOTAL RUN TIME: 0 days 0 hours 0 minutes 2 seconds 407 msec
