
                                 *****************
                                 * O   R   C   A *
                                 *****************

           --- An Ab Initio, DFT and Semiempirical electronic structure package ---

                  #######################################################
                  #                        -***-                        #
                  #  Department of molecular theory and spectroscopy    #
                  #              Directorship: Frank Neese              #
                  # Max Planck Institute for Chemical Energy Conversion #
                  #                  D-45470 Muelheim/Ruhr              #
                  #                       Germany                       #
                  #                                                     #
                  #                  All rights reserved                #
                  #                        -***-                        #
                  #######################################################


                         Program Version 3.0.3 - RELEASE   -


 With contributions from (in alphabetic order):
   Ute Becker             : Parallelization
   Dmytro Bykov           : SCF Hessian
   Dmitry Ganyushin       : Spin-Orbit,Spin-Spin,Magnetic field MRCI
   Andreas Hansen         : Spin unrestricted coupled pair/coupled cluster methods
   Dimitrios Liakos       : Extrapolation schemes; parallel MDCI
   Robert Izsak           : Overlap fitted RIJCOSX, COSX-SCS-MP3
   Christian Kollmar      : KDIIS, OOCD, Brueckner-CCSD(T), CCSD density
   Simone Kossmann        : Meta GGA functionals, TD-DFT gradient, OOMP2, MP2 Hessian
   Taras Petrenko         : DFT Hessian,TD-DFT gradient, ASA and ECA modules, normal mode analysis, Resonance Raman, ABS, FL, XAS/XES, NRVS
   Christoph Reimann      : Effective Core Potentials
   Michael Roemelt        : Restricted open shell CIS
   Christoph Riplinger    : Improved optimizer, TS searches, QM/MM, DLPNO-CCSD
   Barbara Sandhoefer     : DKH picture change effects
   Igor Schapiro          : Molecular dynamics
   Kantharuban Sivalingam : CASSCF convergence, NEVPT2
   Boris Wezisla          : Elementary symmetry handling
   Frank Wennmohs         : Technical directorship


 We gratefully acknowledge several colleagues who have allowed us to
 interface, adapt or use parts of their codes:
   Stefan Grimme, W. Hujo, H. Kruse, T. Risthaus : VdW corrections, initial TS optimization,
                                                   DFT functionals, gCP
   Ed Valeev                                     : LibInt (2-el integral package), F12 methods
   Garnet Chan, S. Sharma, R. Olivares           : DMRG
   Ulf Ekstrom                                   : XCFun DFT Library
   Mihaly Kallay                                 : mrcc  (arbitrary order and MRCC methods)
   Andreas Klamt, Michael Diedenhofen            : otool_cosmo (COSMO solvation model)
   Frank Weinhold                                : gennbo (NPA and NBO analysis)
   Christopher J. Cramer and Donald G. Truhlar   : smd solvation model


 Your calculation uses the libint2 library for the computation of 2-el integrals
 For citations please refer to: http://libint.valeyev.net

 This ORCA versions uses:
   CBLAS   interface :  Fast vector & matrix operations
   LAPACKE interface :  Fast linear algebra routines
   SCALAPACK package :  Parallel linear algebra routines


leaving
================================================================================
                                        WARNINGS
                       Please study these warnings very carefully!
================================================================================
Now building the actual basis set

WARNING: Direct SCF is incompatible with Method<>HF and Method<>DFT
  ===> : conventional SCF is chosen

WARNING: The NDO methods need Guess=HUECKEL or Guess=HCORE or Guess=MOREAD
  ===> : Guess is set to Hueckel

WARNING: The NDO methods need %rel::SOCType==1
  ===> : %rel::SOCType is set to 1

WARNING: The NDO methods cannot have frozencore=1
  ===> : %method FrozenCore=0 end
INFO   : Checking CIS options ...


INFO   : the flag for use of LIBINT has been found!

================================================================================
                                       INPUT FILE
================================================================================
NAME = AAGZWACRJUOJKJ-UHFFFAOYSA-N.inp
|  1> !RHF ZINDO/S TightSCF DIIS NoRICO NoMOPrint
|  2> %cis NRoots 10
|  3> MaxDim 25
|  4> triplets true
|  5> end
|  6> 
|  7> * xyz 0 1
|  8> N 2.93292 -2.83086 -1.61842
|  9> C 2.83602 -1.83802 -1.02777
| 10> C 2.74618 -0.62561 -0.31523
| 11> C 1.61165 0.07555 0.00046
| 12> N 0.31051 -0.20831 -0.33580
| 13> C -0.06868 -1.53791 -0.78857
| 14> Cl 0.36104 -2.69468 0.53815
| 15> C -1.55529 -1.70300 -1.06180
| 16> C -2.37485 -1.18654 0.12208
| 17> C -2.01435 0.24172 0.36134
| 18> C -0.71501 0.70074 0.08295
| 19> C -0.42673 2.07001 0.17197
| 20> C -1.39977 2.95490 0.62423
| 21> C -2.66752 2.49163 0.96868
| 22> C -2.97446 1.14189 0.82048
| 23> C 4.04642 -0.09984 0.11205
| 24> O 5.14884 -0.49622 -0.15402
| 25> O 3.89330 0.99774 0.91719
| 26> H 1.74042 1.02056 0.58333
| 27> H 0.55312 -1.84907 -1.66871
| 28> H -1.79309 -2.76746 -1.27320
| 29> H -1.83411 -1.15291 -1.98750
| 30> H -2.18852 -1.79432 1.03672
| 31> H -3.45937 -1.30452 -0.08048
| 32> H 0.54701 2.46179 -0.12323
| 33> H -1.16596 4.01667 0.70507
| 34> H -3.42015 3.18548 1.33968
| 35> H -3.97652 0.78532 1.06057
| 36> H 4.75278 1.36262 1.23967
| 37> **                         ****END OF INPUT****
================================================================================

                       ****************************
                       * Single Point Calculation *
                       ****************************

---------------------------------
CARTESIAN COORDINATES (ANGSTROEM)
---------------------------------
  N      2.932920   -2.830860   -1.618420
  C      2.836020   -1.838020   -1.027770
  C      2.746180   -0.625610   -0.315230
  C      1.611650    0.075550    0.000460
  N      0.310510   -0.208310   -0.335800
  C     -0.068680   -1.537910   -0.788570
  Cl     0.361040   -2.694680    0.538150
  C     -1.555290   -1.703000   -1.061800
  C     -2.374850   -1.186540    0.122080
  C     -2.014350    0.241720    0.361340
  C     -0.715010    0.700740    0.082950
  C     -0.426730    2.070010    0.171970
  C     -1.399770    2.954900    0.624230
  C     -2.667520    2.491630    0.968680
  C     -2.974460    1.141890    0.820480
  C      4.046420   -0.099840    0.112050
  O      5.148840   -0.496220   -0.154020
  O      3.893300    0.997740    0.917190
  H      1.740420    1.020560    0.583330
  H      0.553120   -1.849070   -1.668710
  H     -1.793090   -2.767460   -1.273200
  H     -1.834110   -1.152910   -1.987500
  H     -2.188520   -1.794320    1.036720
  H     -3.459370   -1.304520   -0.080480
  H      0.547010    2.461790   -0.123230
  H     -1.165960    4.016670    0.705070
  H     -3.420150    3.185480    1.339680
  H     -3.976520    0.785320    1.060570
  H      4.752780    1.362620    1.239670

----------------------------
CARTESIAN COORDINATES (A.U.)
----------------------------
  NO LB      ZA    FRAG    MASS        X           Y           Z
   0 N     5.0000    0    14.007          5.542415572700317         -5.349550123472314         -3.058370569660832
   1 C     4.0000    0    12.011          5.359301110323348         -3.473354428669939         -1.942203828660245
   2 C     4.0000    0    12.011          5.189528114451862         -1.182231566642474         -0.595698369195996
   3 C     4.0000    0    12.011          3.045577123734185          0.142768809417751          0.000869274021604
   4 N     5.0000    0    14.007          0.586778861843888         -0.393648850957136         -0.634570035770756
   5 C     4.0000    0    12.011         -0.129786390877712         -2.906228718618832         -1.490181337426281
   6 Cl    7.0000    0    35.453          0.682266723390929         -5.092207218554918          1.016956118969722
   7 C     4.0000    0    12.011         -2.939072158826384         -3.218203606067892         -2.006511208997585
   8 C     4.0000    0    12.011         -4.487816109142885         -2.242235646942922          0.230697766429106
   9 C     4.0000    0    12.011         -3.806569837864273          0.456784601091445          0.682833641231105
  10 C     4.0000    0    12.011         -1.351173083015034          1.324206691083978          0.156752782808768
  11 C     4.0000    0    12.011         -0.806402833128216          3.911751994478330          0.324976203250438
  12 C     4.0000    0    12.011         -2.645181950478950          5.583951753123906          1.179623744577663
  13 C     4.0000    0    12.011         -5.040882256757618          4.708498327062208          1.830539911406838
  14 C     4.0000    0    12.011         -5.620914796303406          2.157859375063338          1.550482498359709
  15 C     4.0000    0    12.011          7.646625622821632         -0.188670257210698          0.211743813305876
  16 O     6.0000    0    15.999          9.729897507379096         -0.937719902174403         -0.291055619146551
  17 O     6.0000    0    15.999          7.357270757195609          1.885455352858590          1.733237912771233
  18 H     1.0000    0     1.008          3.288917157999225          1.928578903234673          1.102333945700284
  19 H     1.0000    0     1.008          1.045245319194523         -3.494235902449769         -3.153404896935732
  20 H     1.0000    0     1.008         -3.388449033472857         -5.229741486581707         -2.405999313708538
  21 H     1.0000    0     1.008         -3.465965599486307         -2.178684157059151         -3.755830691168488
  22 H     1.0000    0     1.008         -4.135703438609338         -3.390773396617580          1.959116877558840
  23 H     1.0000    0     1.008         -6.537261895903160         -2.465185536222951         -0.152085159257982
  24 H     1.0000    0     1.008          1.033699092516264          4.652108899225999         -0.232870951483116
  25 H     1.0000    0     1.008         -2.203345083106823          7.590406270337475          1.332389205243857
  26 H     1.0000    0     1.008         -6.463146836930769          6.019684805083469          2.531628307091622
  27 H     1.0000    0     1.008         -7.514533766060535          1.484039727491037          2.004186845852862
  28 H     1.0000    0     1.008          8.981452574778245          2.574978624603776          2.342636796438158

--------------------------------
INTERNAL COORDINATES (ANGSTROEM)
--------------------------------
 N      0   0   0   0.000000     0.000     0.000
 C      1   0   0   1.159305     0.000     0.000
 C      2   1   0   1.409157   178.821     0.000
 C      3   2   1   1.370563   127.546   160.638
 N      4   3   2   1.373540   128.465   357.638
 C      5   4   3   1.454861   120.794    17.369
 Cl     6   5   4   1.811895   107.084    59.042
 C      6   5   4   1.520499   114.204   177.436
 C      8   6   5   1.529700   110.371   310.251
 C      9   8   6   1.492358   108.529    57.352
 C     10   9   8   1.405875   120.264   328.511
 C     11  10   9   1.402116   119.756   173.065
 C     12  11  10   1.390819   119.877     4.467
 C     13  12  11   1.393002   120.366   358.932
 C     14  13  12   1.392111   119.787   358.030
 C      3   2   1   1.466160   113.538   340.673
 O     16   3   2   1.201349   129.120     6.755
 O     16   3   2   1.369809   111.069   186.408
 H      4   3   2   1.117749   117.211   179.517
 H      6   5   4   1.121652   110.686   304.619
 H      8   6   5   1.110997   110.334   187.386
 H      8   6   5   1.112322   109.934    71.828
 H      9   8   6   1.113859   111.202   295.608
 H      9   8   6   1.109565   110.273   179.803
 H     12  11  10   1.090323   121.154   185.460
 H     13  12  11   1.090210   119.585   179.131
 H     14  13  12   1.088816   120.093   178.869
 H     15  14  13   1.090371   119.752   181.917
 H     18  16   3   0.987844   112.991   178.619

---------------------------
INTERNAL COORDINATES (A.U.)
---------------------------
 N      0   0   0   0.000000     0.000     0.000
 C      1   0   0   2.190769     0.000     0.000
 C      2   1   0   2.662920   178.821     0.000
 C      3   2   1   2.589989   127.546   160.638
 N      4   3   2   2.595615   128.465   357.638
 C      5   4   3   2.749290   120.794    17.369
 Cl     6   5   4   3.423985   107.084    59.042
 C      6   5   4   2.873328   114.204   177.436
 C      8   6   5   2.890714   110.371   310.251
 C      9   8   6   2.820148   108.529    57.352
 C     10   9   8   2.656719   120.264   328.511
 C     11  10   9   2.649616   119.756   173.065
 C     12  11  10   2.628266   119.877     4.467
 C     13  12  11   2.632393   120.366   358.932
 C     14  13  12   2.630709   119.787   358.030
 C      3   2   1   2.770642   113.538   340.673
 O     16   3   2   2.270221   129.120     6.755
 O     16   3   2   2.588565   111.069   186.408
 H      4   3   2   2.112240   117.211   179.517
 H      6   5   4   2.119614   110.686   304.619
 H      8   6   5   2.099480   110.334   187.386
 H      8   6   5   2.101984   109.934    71.828
 H      9   8   6   2.104888   111.202   295.608
 H      9   8   6   2.096773   110.273   179.803
 H     12  11  10   2.060412   121.154   185.460
 H     13  12  11   2.060198   119.585   179.131
 H     14  13  12   2.057564   120.093   178.869
 H     15  14  13   2.060503   119.752   181.917
 H     18  16   3   1.866755   112.991   178.619

----------------------------
SLATER BASIS SET DIM=  83
----------------------------
  0 N     2 shells
 l=0 nsto= 1
    2       1.950000000000        1.000000000000
 l=1 nsto= 1
    2       1.950000000000        1.000000000000
  1 C     2 shells
 l=0 nsto= 1
    2       1.625000000000        1.000000000000
 l=1 nsto= 1
    2       1.625000000000        1.000000000000
  2 C     2 shells
 l=0 nsto= 1
    2       1.625000000000        1.000000000000
 l=1 nsto= 1
    2       1.625000000000        1.000000000000
  3 C     2 shells
 l=0 nsto= 1
    2       1.625000000000        1.000000000000
 l=1 nsto= 1
    2       1.625000000000        1.000000000000
  4 N     2 shells
 l=0 nsto= 1
    2       1.950000000000        1.000000000000
 l=1 nsto= 1
    2       1.950000000000        1.000000000000
  5 C     2 shells
 l=0 nsto= 1
    2       1.625000000000        1.000000000000
 l=1 nsto= 1
    2       1.625000000000        1.000000000000
  6 Cl    2 shells
 l=0 nsto= 1
    3       2.130000000000        1.000000000000
 l=1 nsto= 1
    3       2.130000000000        1.000000000000
  7 C     2 shells
 l=0 nsto= 1
    2       1.625000000000        1.000000000000
 l=1 nsto= 1
    2       1.625000000000        1.000000000000
  8 C     2 shells
 l=0 nsto= 1
    2       1.625000000000        1.000000000000
 l=1 nsto= 1
    2       1.625000000000        1.000000000000
  9 C     2 shells
 l=0 nsto= 1
    2       1.625000000000        1.000000000000
 l=1 nsto= 1
    2       1.625000000000        1.000000000000
 10 C     2 shells
 l=0 nsto= 1
    2       1.625000000000        1.000000000000
 l=1 nsto= 1
    2       1.625000000000        1.000000000000
 11 C     2 shells
 l=0 nsto= 1
    2       1.625000000000        1.000000000000
 l=1 nsto= 1
    2       1.625000000000        1.000000000000
 12 C     2 shells
 l=0 nsto= 1
    2       1.625000000000        1.000000000000
 l=1 nsto= 1
    2       1.625000000000        1.000000000000
 13 C     2 shells
 l=0 nsto= 1
    2       1.625000000000        1.000000000000
 l=1 nsto= 1
    2       1.625000000000        1.000000000000
 14 C     2 shells
 l=0 nsto= 1
    2       1.625000000000        1.000000000000
 l=1 nsto= 1
    2       1.625000000000        1.000000000000
 15 C     2 shells
 l=0 nsto= 1
    2       1.625000000000        1.000000000000
 l=1 nsto= 1
    2       1.625000000000        1.000000000000
 16 O     2 shells
 l=0 nsto= 1
    2       2.275000000000        1.000000000000
 l=1 nsto= 1
    2       2.275000000000        1.000000000000
 17 O     2 shells
 l=0 nsto= 1
    2       2.275000000000        1.000000000000
 l=1 nsto= 1
    2       2.275000000000        1.000000000000
 18 H     1 shells
 l=0 nsto= 1
    1       1.200000000000        1.000000000000
 19 H     1 shells
 l=0 nsto= 1
    1       1.200000000000        1.000000000000
 20 H     1 shells
 l=0 nsto= 1
    1       1.200000000000        1.000000000000
 21 H     1 shells
 l=0 nsto= 1
    1       1.200000000000        1.000000000000
 22 H     1 shells
 l=0 nsto= 1
    1       1.200000000000        1.000000000000
 23 H     1 shells
 l=0 nsto= 1
    1       1.200000000000        1.000000000000
 24 H     1 shells
 l=0 nsto= 1
    1       1.200000000000        1.000000000000
 25 H     1 shells
 l=0 nsto= 1
    1       1.200000000000        1.000000000000
 26 H     1 shells
 l=0 nsto= 1
    1       1.200000000000        1.000000000000
 27 H     1 shells
 l=0 nsto= 1
    1       1.200000000000        1.000000000000
 28 H     1 shells
 l=0 nsto= 1
    1       1.200000000000        1.000000000000
------------------------------------------------------------------------------
                           ORCA NDO INTEGRAL CALCULATION
------------------------------------------------------------------------------

--------------
NDO PARAMETERS
--------------

Gamma integral treatment              ... Mataga-Nishimoto
Nuclear repulsuion treatment          ... Direct (ZA*ZB/RAB)
Interaction factors:
s-s (sigma) =    1.0000
s-p (sigma) =    1.0000
s-d (sigma) =    1.0000
p-p (sigma) =    1.2670  p-p(pi) =    0.5850
p-d (sigma) =    1.0000  p-d(pi) =    1.0000
d-d (sigma) =    1.0000  d-d(pi) =    1.0000 d-d (delta) =    1.0000

fGamma parameter for Mataga-Nishimoto gamma integrals:    1.2000

--------------------------
Parameters for Element H :
--------------------------
 One-electron parameters (in eV)
  U(s)  =   -13.060000 Beta(s) =    12.000000 Neff(s) =     1.000000
 One-center electron repulsion parameters (in eV)
  G(s,s)=    12.850000
--------------------------
Parameters for Element C :
--------------------------
 One-electron parameters (in eV)
  U(s)  =   -50.870766 Beta(s) =    17.000000 Neff(s) =     2.000000
  U(p)  =   -41.599980 Beta(p) =    17.000000 Neff(p) =     2.000000 
 One-center electron repulsion parameters (in eV)
  G(s,s)=    11.110000
  G(s,p)=    11.110000 G(p,p)  =    11.110000
 Slater-Condon parameters (in eV)
 F2(p,p)=     4.5098 G1(s,p)=    6.8977
--------------------------
Parameters for Element N :
--------------------------
 One-electron parameters (in eV)
  U(s)  =   -69.250864 Beta(s) =    26.000000 Neff(s) =     2.000000
  U(p)  =   -58.070401 Beta(p) =    26.000000 Neff(p) =     3.000000 
 One-center electron repulsion parameters (in eV)
  G(s,s)=    12.010000
  G(s,p)=    12.010000 G(p,p)  =    12.010000
 Slater-Condon parameters (in eV)
 F2(p,p)=     6.4594 G1(s,p)=    8.9583
--------------------------
Parameters for Element O :
--------------------------
 One-electron parameters (in eV)
  U(s)  =   -90.023218 Beta(s) =    34.000000 Neff(s) =     2.000000
  U(p)  =   -76.684970 Beta(p) =    34.000000 Neff(p) =     4.000000 
 One-center electron repulsion parameters (in eV)
  G(s,s)=    13.000000
  G(s,p)=    13.000000 G(p,p)  =    13.000000
 Slater-Condon parameters (in eV)
 F2(p,p)=     6.9027 G1(s,p)=   11.8152
--------------------------
Parameters for Element Cl:
--------------------------
 One-electron parameters (in eV)
  U(s)  =   -85.394437 Beta(s) =    11.000000 Neff(s) =     2.000000
  U(p)  =   -77.532725 Beta(p) =    11.000000 Neff(p) =     5.000000 
 One-center electron repulsion parameters (in eV)
  G(s,s)=    11.250000
  G(s,p)=    11.250000 G(p,p)  =    11.250000
 Slater-Condon parameters (in eV)
 F2(p,p)=     6.4470 G1(s,p)=    8.8027

 Number of atoms                    ....   29
 Number of basis functions          ....   83

 Overlap integrals                  .... done
 One electron matrix                .... done
 Nuclear repulsion                  .... done
 Integral list                      .... done
 Electron-electron repulsion        .... done
-------------------------------------------------------------------------------
                                 ORCA SCF
-------------------------------------------------------------------------------

------------
SCF SETTINGS
------------
Hamiltonian:
 ZDO-Hamiltonian        Method          .... INDO


General Settings:
 Integral files         IntName         .... AAGZWACRJUOJKJ-UHFFFAOYSA-N
 Hartree-Fock type      HFTyp           .... RHF
 Total Charge           Charge          ....    0
 Multiplicity           Mult            ....    1
 Number of Electrons    NEL             ....   92
 Basis Dimension        Dim             ....   83
 Nuclear Repulsion      ENuc            ....    643.9544361611 Eh

Convergence Acceleration:
 DIIS                   CNVDIIS         .... on
   Start iteration      DIISMaxIt       ....    12
   Startup error        DIISStart       ....  0.200000
   # of expansion vecs  DIISMaxEq       ....     5
   Bias factor          DIISBfac        ....   1.050
   Max. coefficient     DIISMaxC        ....  10.000
 Newton-Raphson         CNVNR           .... off
 SOSCF                  CNVSOSCF        .... on
   Start iteration      SOSCFMaxIt      ....   150
   Startup grad/error   SOSCFStart      ....  0.003300
 Level Shifting         CNVShift        .... on
   Level shift para.    LevelShift      ....    0.2500
   Turn off err/grad.   ShiftErr        ....    0.0010
 Zerner damping         CNVZerner       .... off
 Static damping         CNVDamp         .... on
   Fraction old density DampFac         ....    0.7000
   Max. Damping (<1)    DampMax         ....    0.9800
   Min. Damping (>=0)   DampMin         ....    0.0000
   Turn off err/grad.   DampErr         ....    0.1000
 Fernandez-Rico         CNVRico         .... off

SCF Procedure:
 Maximum # iterations   MaxIter         ....   125
 SCF integral mode      SCFMode         .... Conventional
 Integral Buffer length BufferLength    .... 1048576
 Integral index format  IndFormat       ....     0
 Integral value format  ValFormat       ....     0
 Integral Storage       Thresh          ....  2.500e-11 Eh

Convergence Tolerance:
 Convergence Check Mode ConvCheckMode   .... Total+1el-Energy
 Energy Change          TolE            ....  1.000e-08 Eh
 1-El. energy change                    ....  1.000e-05 Eh
 Orbital Gradient       TolG            ....  1.000e-05
 Orbital Rotation angle TolX            ....  1.000e-05
 DIIS Error             TolErr          ....  5.000e-07


Diagonalization of the overlap matrix:
Smallest eigenvalue                        ... 1.393e-01
Time for diagonalization                   ...    0.001 sec
Threshold for overlap eigenvalues          ... 1.000e-08
Number of eigenvalues below threshold      ... 0
Time for construction of square roots      ...    0.000 sec
Total time needed                          ...    0.001 sec

-------------------------------
INITIAL GUESS: EXTENDED HUECKEL
-------------------------------
EHT matrix was read from disk
EHT matrix was diagonalized
Initial density was built
                      ------------------
                      INITIAL GUESS DONE
                      ------------------

 InCore treatment chosen:
   Memory dedicated               ...    1024 MB
   Memory needed                  ...      0 MB
   Number of tiny    integrals    ...       0
   Number of small   integrals    ...       0
   Number of regular integrals    ...    3594

--------------
SCF ITERATIONS
--------------
ITER       Energy         Delta-E        Max-DP      RMS-DP      [F,P]     Damp
  0      6.5039765673   0.000000000000 0.07710981  0.00289022  0.2762844 0.7000
  1      6.4287099548  -0.075266612448 0.06848807  0.00265857  0.2094655 0.7000
                               ***Turning on DIIS***
  2      6.3754917452  -0.053218209628 0.04201967  0.00191293  0.1531355 0.7000
  3      6.5833545301   0.207862784914 0.03088396  0.00129100  0.1118800 0.7000
  4      6.5580181099  -0.025336420203 0.08111910  0.00330530  0.0814856 0.0000
  5      6.2843097360  -0.273708373946 0.01284709  0.00056004  0.0110455 0.0000
  6      6.2476082330  -0.036701502962 0.00641929  0.00028175  0.0033765 0.0000
                      *** Initiating the SOSCF procedure ***
                           *** Shutting down DIIS ***
                      *** Re-Reading the Fockian *** 
                      *** Removing any level shift *** 
ITER      Energy       Delta-E        Grad      Rot      Max-DP    RMS-DP
  7      6.24799103   0.0003827985  0.003172  0.003172  0.004946  0.000212
  8      6.24336496  -0.0046260747  0.001695  0.006093  0.004629  0.000179
  9      6.24331961  -0.0000453479  0.000711  0.005902  0.004358  0.000181
 10      6.24330423  -0.0000153785  0.000156  0.000383  0.000827  0.000026
 11      6.24330332  -0.0000009104  0.000124  0.000198  0.000474  0.000011
 12      6.24330316  -0.0000001600  0.000022  0.000103  0.000246  0.000007
 13      6.24330311  -0.0000000483  0.000010  0.000056  0.000137  0.000004
 14      6.24330310  -0.0000000079  0.000004  0.000012  0.000032  0.000001
                 **** Energy Check signals convergence ****
              ***Rediagonalizing the Fockian in SOSCF/NRSCF***

               *****************************************************
               *                     SUCCESS                       *
               *           SCF CONVERGED AFTER  15 CYCLES          *
               *****************************************************


----------------
TOTAL SCF ENERGY
----------------

Total Energy       :            6.24330310 Eh             169.88891 eV

Components:
Nuclear Repulsion  :          643.95443616 Eh           17522.89105 eV
Electronic Energy  :         -637.71113306 Eh          -17353.00214 eV

One Electron Energy:        -1202.38284005 Eh          -32718.50045 eV
Two Electron Energy:          564.67170699 Eh           15365.49831 eV


---------------
SCF CONVERGENCE
---------------

  Last Energy change         ...   -9.4838e-10  Tolerance :   1.0000e-08
  Last MAX-Density change    ...    1.0474e-05  Tolerance :   1.0000e-07
  Last RMS-Density change    ...    4.4195e-07  Tolerance :   5.0000e-09
  Last Orbital Gradient      ...    1.2853e-06  Tolerance :   1.0000e-05
  Last Orbital Rotation      ...    6.2148e-06  Tolerance :   1.0000e-05

             **** THE GBW FILE WAS UPDATED (AAGZWACRJUOJKJ-UHFFFAOYSA-N.gbw) ****
             **** DENSITY FILE WAS UPDATED (AAGZWACRJUOJKJ-UHFFFAOYSA-N.scfp.tmp) ****
             **** ENERGY FILE WAS UPDATED (AAGZWACRJUOJKJ-UHFFFAOYSA-N.en.tmp) ****
----------------
ORBITAL ENERGIES
----------------

  NO   OCC          E(Eh)            E(eV) 
   0   2.0000      -1.779338       -48.4182 
   1   2.0000      -1.717437       -46.7338 
   2   2.0000      -1.594933       -43.4003 
   3   2.0000      -1.496582       -40.7241 
   4   2.0000      -1.460175       -39.7334 
   5   2.0000      -1.398558       -38.0567 
   6   2.0000      -1.297164       -35.2976 
   7   2.0000      -1.250698       -34.0332 
   8   2.0000      -1.216499       -33.1026 
   9   2.0000      -1.106615       -30.1125 
  10   2.0000      -1.046139       -28.4669 
  11   2.0000      -1.038445       -28.2575 
  12   2.0000      -0.950287       -25.8586 
  13   2.0000      -0.928343       -25.2615 
  14   2.0000      -0.919354       -25.0169 
  15   2.0000      -0.835678       -22.7400 
  16   2.0000      -0.801816       -21.8185 
  17   2.0000      -0.779569       -21.2132 
  18   2.0000      -0.757356       -20.6087 
  19   2.0000      -0.724067       -19.7029 
  20   2.0000      -0.691318       -18.8117 
  21   2.0000      -0.648323       -17.6418 
  22   2.0000      -0.644623       -17.5411 
  23   2.0000      -0.623820       -16.9750 
  24   2.0000      -0.620470       -16.8838 
  25   2.0000      -0.609940       -16.5973 
  26   2.0000      -0.608277       -16.5521 
  27   2.0000      -0.586601       -15.9622 
  28   2.0000      -0.579598       -15.7717 
  29   2.0000      -0.544193       -14.8082 
  30   2.0000      -0.535317       -14.5667 
  31   2.0000      -0.526201       -14.3187 
  32   2.0000      -0.510929       -13.9031 
  33   2.0000      -0.502137       -13.6638 
  34   2.0000      -0.490744       -13.3538 
  35   2.0000      -0.481978       -13.1153 
  36   2.0000      -0.478854       -13.0303 
  37   2.0000      -0.476359       -12.9624 
  38   2.0000      -0.467694       -12.7266 
  39   2.0000      -0.459606       -12.5065 
  40   2.0000      -0.453333       -12.3358 
  41   2.0000      -0.421818       -11.4783 
  42   2.0000      -0.419307       -11.4099 
  43   2.0000      -0.367791       -10.0081 
  44   2.0000      -0.350233        -9.5303 
  45   2.0000      -0.321194        -8.7401 
  46   0.0000      -0.043064        -1.1718 
  47   0.0000       0.000593         0.0161 
  48   0.0000       0.002818         0.0767 
  49   0.0000       0.012582         0.3424 
  50   0.0000       0.022784         0.6200 
  51   0.0000       0.053871         1.4659 
  52   0.0000       0.057794         1.5727 
  53   0.0000       0.071385         1.9425 
  54   0.0000       0.085028         2.3137 
  55   0.0000       0.086655         2.3580 
  56   0.0000       0.098978         2.6933 
  57   0.0000       0.106857         2.9077 
  58   0.0000       0.114701         3.1212 
  59   0.0000       0.119556         3.2533 
  60   0.0000       0.140376         3.8198 
  61   0.0000       0.155158         4.2221 
  62   0.0000       0.165568         4.5053 
  63   0.0000       0.176687         4.8079 
  64   0.0000       0.184785         5.0283 
  65   0.0000       0.198945         5.4136 
  66   0.0000       0.205375         5.5885 
  67   0.0000       0.218230         5.9383 
  68   0.0000       0.224209         6.1010 
  69   0.0000       0.237652         6.4668 
  70   0.0000       0.255559         6.9541 
  71   0.0000       0.278807         7.5867 
  72   0.0000       0.292359         7.9555 
  73   0.0000       0.308968         8.4074 
  74   0.0000       0.327119         8.9014 
  75   0.0000       0.344937         9.3862 
  76   0.0000       0.371899        10.1199 
  77   0.0000       0.395718        10.7680 
  78   0.0000       0.428148        11.6505 
  79   0.0000       0.438187        11.9237 
  80   0.0000       0.451410        12.2835 
  81   0.0000       0.483859        13.1665 
  82   0.0000       0.520986        14.1768 

                    ********************************
                    * MULLIKEN POPULATION ANALYSIS *
                    ********************************

-----------------------
MULLIKEN ATOMIC CHARGES
-----------------------
   0 N :   -0.479704
   1 C :    0.321386
   2 C :    0.043258
   3 C :    0.149455
   4 N :   -0.299492
   5 C :    0.247655
   6 Cl:   -0.323572
   7 C :   -0.064879
   8 C :   -0.076291
   9 C :    0.007319
  10 C :    0.105548
  11 C :   -0.078228
  12 C :   -0.070616
  13 C :   -0.070037
  14 C :   -0.074755
  15 C :    0.711314
  16 O :   -0.695486
  17 O :   -0.553782
  18 H :    0.133551
  19 H :    0.139300
  20 H :    0.067834
  21 H :    0.060216
  22 H :    0.077394
  23 H :    0.055996
  24 H :    0.076772
  25 H :    0.078185
  26 H :    0.078527
  27 H :    0.077986
  28 H :    0.355147
Sum of atomic charges:   -0.0000000


                     *******************************
                     * LOEWDIN POPULATION ANALYSIS *
                     *******************************

----------------------
LOEWDIN ATOMIC CHARGES
----------------------
   0 N :   -0.394255
   1 C :    0.241105
   2 C :   -0.005675
   3 C :    0.172466
   4 N :   -0.155933
   5 C :    0.239749
   6 Cl:   -0.280443
   7 C :   -0.003781
   8 C :   -0.011127
   9 C :    0.008423
  10 C :    0.072386
  11 C :   -0.044315
  12 C :   -0.033318
  13 C :   -0.030989
  14 C :   -0.038021
  15 C :    0.566171
  16 O :   -0.598917
  17 O :   -0.411371
  18 H :    0.081262
  19 H :    0.083697
  20 H :    0.028569
  21 H :    0.025313
  22 H :    0.039785
  23 H :    0.020083
  24 H :    0.037553
  25 H :    0.037234
  26 H :    0.037304
  27 H :    0.036896
  28 H :    0.280149

-------------------------------
LOEWDIN REDUCED ORBITAL CHARGES
-------------------------------
  0 N s       :     1.743719  s :     1.743719
      pz      :     1.190416  p :     3.650537
      px      :     1.236304
      py      :     1.223818
  1 C s       :     1.143781  s :     1.143781
      pz      :     0.890833  p :     2.615114
      px      :     0.798682
      py      :     0.925600
  2 C s       :     1.007126  s :     1.007126
      pz      :     1.112481  p :     2.998549
      px      :     0.905325
      py      :     0.980743
  3 C s       :     1.101225  s :     1.101225
      pz      :     0.871601  p :     2.726309
      px      :     0.906713
      py      :     0.947994
  4 N s       :     1.225792  s :     1.225792
      pz      :     1.654354  p :     3.930141
      px      :     1.100880
      py      :     1.174907
  5 C s       :     1.100844  s :     1.100844
      pz      :     0.831471  p :     2.659406
      px      :     1.007219
      py      :     0.820716
  6 Cls       :     1.939070  s :     1.939070
      pz      :     1.648730  p :     5.341373
      px      :     1.960888
      py      :     1.731755
  7 C s       :     1.054713  s :     1.054713
      pz      :     0.985691  p :     2.949068
      px      :     0.966509
      py      :     0.996868
  8 C s       :     1.050834  s :     1.050834
      pz      :     0.990887  p :     2.960292
      px      :     0.978044
      py      :     0.991361
  9 C s       :     1.059542  s :     1.059542
      pz      :     0.983735  p :     2.932035
      px      :     0.969569
      py      :     0.978730
 10 C s       :     1.047046  s :     1.047046
      pz      :     1.019613  p :     2.880568
      px      :     0.924476
      py      :     0.936480
 11 C s       :     1.090807  s :     1.090807
      pz      :     1.023280  p :     2.953508
      px      :     0.963040
      py      :     0.967188
 12 C s       :     1.087811  s :     1.087811
      pz      :     1.001601  p :     2.945507
      px      :     0.990953
      py      :     0.952953
 13 C s       :     1.089129  s :     1.089129
      pz      :     0.988107  p :     2.941860
      px      :     0.974432
      py      :     0.979320
 14 C s       :     1.090029  s :     1.090029
      pz      :     1.008122  p :     2.947993
      px      :     0.956759
      py      :     0.983111
 15 C s       :     1.032743  s :     1.032743
      pz      :     0.713388  p :     2.401085
      px      :     0.927883
      py      :     0.759815
 16 O s       :     1.797278  s :     1.797278
      pz      :     1.656987  p :     4.801639
      px      :     1.405851
      py      :     1.738802
 17 O s       :     1.683001  s :     1.683001
      pz      :     1.683423  p :     4.728370
      px      :     1.537367
      py      :     1.507581
 18 H s       :     0.918738  s :     0.918738
 19 H s       :     0.916303  s :     0.916303
 20 H s       :     0.971431  s :     0.971431
 21 H s       :     0.974687  s :     0.974687
 22 H s       :     0.960215  s :     0.960215
 23 H s       :     0.979917  s :     0.979917
 24 H s       :     0.962447  s :     0.962447
 25 H s       :     0.962766  s :     0.962766
 26 H s       :     0.962696  s :     0.962696
 27 H s       :     0.963104  s :     0.963104
 28 H s       :     0.719851  s :     0.719851


                      *****************************
                      * MAYER POPULATION ANALYSIS *
                      *****************************

  NA   - Mulliken gross atomic population
  ZA   - Total nuclear charge
  QA   - Mulliken gross atomic charge
  VA   - Mayer's total valence
  BVA  - Mayer's bonded valence
  FA   - Mayer's free valence

  ATOM       NA         ZA         QA         VA         BVA        FA
  0 N      5.4797     5.0000    -0.4797     2.8857     2.8857     0.0000
  1 C      3.6786     4.0000     0.3214     3.8320     3.8320     0.0000
  2 C      3.9567     4.0000     0.0433     3.8640     3.8640     0.0000
  3 C      3.8505     4.0000     0.1495     3.8353     3.8353     0.0000
  4 N      5.2995     5.0000    -0.2995     3.2346     3.2346     0.0000
  5 C      3.7523     4.0000     0.2477     3.7654     3.7654    -0.0000
  6 Cl     7.3236     7.0000    -0.3236     0.8937     0.8937     0.0000
  7 C      4.0649     4.0000    -0.0649     3.9064     3.9064    -0.0000
  8 C      4.0763     4.0000    -0.0763     3.9130     3.9130    -0.0000
  9 C      3.9927     4.0000     0.0073     3.9297     3.9297    -0.0000
 10 C      3.8945     4.0000     0.1055     3.8972     3.8972    -0.0000
 11 C      4.0782     4.0000    -0.0782     3.8890     3.8890    -0.0000
 12 C      4.0706     4.0000    -0.0706     3.8958     3.8958    -0.0000
 13 C      4.0700     4.0000    -0.0700     3.8952     3.8952    -0.0000
 14 C      4.0748     4.0000    -0.0748     3.8921     3.8921    -0.0000
 15 C      3.2887     4.0000     0.7113     3.7267     3.7267    -0.0000
 16 O      6.6955     6.0000    -0.6955     1.7063     1.7063     0.0000
 17 O      6.5538     6.0000    -0.5538     1.9258     1.9258     0.0000
 18 H      0.8664     1.0000     0.1336     0.9822     0.9822     0.0000
 19 H      0.8607     1.0000     0.1393     0.9806     0.9806    -0.0000
 20 H      0.9322     1.0000     0.0678     0.9954     0.9954     0.0000
 21 H      0.9398     1.0000     0.0602     0.9964     0.9964    -0.0000
 22 H      0.9226     1.0000     0.0774     0.9940     0.9940    -0.0000
 23 H      0.9440     1.0000     0.0560     0.9969     0.9969    -0.0000
 24 H      0.9232     1.0000     0.0768     0.9941     0.9941    -0.0000
 25 H      0.9218     1.0000     0.0782     0.9939     0.9939     0.0000
 26 H      0.9215     1.0000     0.0785     0.9938     0.9938    -0.0000
 27 H      0.9220     1.0000     0.0780     0.9939     0.9939    -0.0000
 28 H      0.6449     1.0000     0.3551     0.8739     0.8739     0.0000

  Mayer bond orders larger than 0.1
B(  0-N ,  1-C ) :   2.7312 B(  1-C ,  2-C ) :   1.0338 B(  2-C ,  3-C ) :   1.5758 
B(  2-C , 15-C ) :   1.0636 B(  3-C ,  4-N ) :   1.1155 B(  3-C , 18-H ) :   0.9347 
B(  4-N ,  5-C ) :   0.9607 B(  4-N , 10-C ) :   0.9625 B(  5-C ,  6-Cl) :   0.8415 
B(  5-C ,  7-C ) :   0.9659 B(  5-C , 19-H ) :   0.9343 B(  7-C ,  8-C ) :   0.9682 
B(  7-C , 20-H ) :   0.9606 B(  7-C , 21-H ) :   0.9616 B(  8-C ,  9-C ) :   0.9746 
B(  8-C , 22-H ) :   0.9571 B(  8-C , 23-H ) :   0.9630 B(  9-C , 10-C ) :   1.3654 
B(  9-C , 12-C ) :   0.1090 B(  9-C , 14-C ) :   1.3879 B( 10-C , 11-C ) :   1.3672 
B( 10-C , 13-C ) :   0.1104 B( 11-C , 12-C ) :   1.3937 B( 11-C , 14-C ) :   0.1082 
B( 11-C , 24-H ) :   0.9432 B( 12-C , 13-C ) :   1.3842 B( 12-C , 25-H ) :   0.9458 
B( 13-C , 14-C ) :   1.3890 B( 13-C , 26-H ) :   0.9455 B( 14-C , 27-H ) :   0.9446 
B( 15-C , 16-O ) :   1.5747 B( 15-C , 17-O ) :   0.9992 B( 17-O , 28-H ) :   0.8548 


-------
TIMINGS
-------

Total SCF time: 0 days 0 hours 0 min 0 sec 

Total time                  ....       0.076 sec
Sum of individual times     ....       0.066 sec  ( 86.8%)

Fock matrix formation       ....       0.043 sec  ( 56.9%)
Diagonalization             ....       0.007 sec  (  9.5%)
Density matrix formation    ....       0.002 sec  (  2.1%)
Population analysis         ....       0.004 sec  (  5.7%)
Initial guess               ....       0.001 sec  (  1.3%)
Orbital Transformation      ....       0.000 sec  (  0.0%)
Orbital Orthonormalization  ....       0.000 sec  (  0.0%)
DIIS solution               ....       0.002 sec  (  3.2%)
SOSCF solution              ....       0.006 sec  (  8.2%)
------------------------------------------------------------------------------
                         ORCA CIS CALCULATION
------------------------------------------------------------------------------

Input orbitals are from        ... AAGZWACRJUOJKJ-UHFFFAOYSA-N.gbw
CI-vector output               ... AAGZWACRJUOJKJ-UHFFFAOYSA-N.cis
Tamm-Dancoff approximation     ... operative
CIS-Integral strategy          ... AO-integrals
Integral handling              ... AO integral Conventional
Reference state                ... RHF
Generation of triplets         ... on
Number of operators            ... 1
Orbital ranges used for CIS calculation:
 Operator 0:  Orbitals   0... 45  to  46... 82
XAS localization array:
 Operator 0:  Orbitals  -1... -1
-------------------
XC-INTEGRATION GRID
-------------------

General Integration Accuracy     IntAcc      ...  3.670
Radial Grid Type                 RadialGrid  ... Gauss-Chebyshev
Angular Grid (max. acc.)         AngularGrid ... Lebedev-50
Angular grid pruning method      GridPruning ... 3 (G Style)
Weight generation scheme         WeightScheme... Becke
Basis function cutoff            BFCut       ...    1.0000e-11
Integration weight cutoff        WCut        ...    1.0000e-14
Grids for H and He will be reduced by one unit

# of grid points (after initial pruning)     ...  17692 (   0.0 sec)
# of grid points (after weights+screening)   ...  16118 (   0.1 sec)
nearest neighbour list constructed           ...    0.0 sec
Grid point re-assignment to atoms done       ...    0.0 sec
Grid point division into batches done        ...    0.0 sec
Reduced shell lists constructed in    0.3 sec

Total number of grid points                  ...    16118
Total number of batches                      ...      263
Average number of points per batch           ...       61
Average number of grid points per atom       ...      556
Average number of shells per batch           ...    38.92 (82.82%)
Average number of basis functions per batch  ...    67.63 (81.48%)
Average number of large shells per batch     ...    27.82 (71.47%)
Average number of large basis fcns per batch ...    48.77 (72.12%)
Maximum spatial batch extension              ...  17.67, 19.21, 18.61 au
Average spatial batch extension              ...   4.18,  4.41,  4.84 au



------------------------
DAVIDSON-DIAGONALIZATION
------------------------

Dimension of the eigenvalue problem            ...   1702
Number of roots to be determined               ...     10
Maximum size of the expansion space            ...     25
Convergence tolerance for the residual         ...    2.500e-07
Convergence tolerance for the energies         ...    2.500e-07
Orthogonality tolerance                        ...    1.000e-14
Level Shift                                    ...    0.000e+00
Constructing the preconditioner                ... o.k.
Building the initial guess                     ... o.k.
Number of trial vectors determined             ...     20


                       ****Iteration    0****

   Memory handling for direct AO based CIS:
   Memory per vector needed      ...     1 MB
   Memory needed                 ...     4 MB
   Memory available              ...   512 MB
   Number of vectors per batch   ...   512
   Number of batches             ...     1
   Time for densities:     0.006
   Time for J+K (Conventional):     0.005
   Time for Sigma-Completion:     0.008
   Size of expansion space: 20
   Lowest Energy          :     0.151770626634
   Maximum Energy change  :     0.229542386030 (vector 9)
   Maximum residual norm  :     0.012040759645
   Rebuilding the expansion space

                       ****Iteration    1****
   Time for densities:     0.005
   Time for J+K (Conventional):     0.005
   Time for Sigma-Completion:     0.009
   Size of expansion space: 20
   Lowest Energy          :     0.142628161093
   Maximum Energy change  :     0.028749424595 (vector 2)
   Maximum residual norm  :     0.000989280957
   Rebuilding the expansion space

                       ****Iteration    2****
   Time for densities:     0.006
   Time for J+K (Conventional):     0.005
   Time for Sigma-Completion:     0.009
   Size of expansion space: 20
   Lowest Energy          :     0.141778551800
   Maximum Energy change  :     0.003786133681 (vector 1)
   Maximum residual norm  :     0.000729626697
   Rebuilding the expansion space

                       ****Iteration    3****
   Time for densities:     0.006
   Time for J+K (Conventional):     0.005
   Time for Sigma-Completion:     0.008
   Size of expansion space: 20
   Lowest Energy          :     0.141628555840
   Maximum Energy change  :     0.002061793644 (vector 6)
   Maximum residual norm  :     0.000539436045
   Rebuilding the expansion space

                       ****Iteration    4****
   Time for densities:     0.006
   Time for J+K (Conventional):     0.006
   Time for Sigma-Completion:     0.008
   Size of expansion space: 20
   Lowest Energy          :     0.141588682318
   Maximum Energy change  :     0.001591164232 (vector 6)
   Maximum residual norm  :     0.000449276445
   Rebuilding the expansion space

                       ****Iteration    5****
   Time for densities:     0.006
   Time for J+K (Conventional):     0.007
   Time for Sigma-Completion:     0.009
   Size of expansion space: 20
   Lowest Energy          :     0.141575350505
   Maximum Energy change  :     0.001231080190 (vector 9)
   Maximum residual norm  :     0.000376379542
   Rebuilding the expansion space

                       ****Iteration    6****
   Time for densities:     0.006
   Time for J+K (Conventional):     0.005
   Time for Sigma-Completion:     0.009
   Size of expansion space: 20
   Lowest Energy          :     0.141570589820
   Maximum Energy change  :     0.001201053564 (vector 9)
   Maximum residual norm  :     0.000369047304
   Rebuilding the expansion space

                       ****Iteration    7****
   Time for densities:     0.006
   Time for J+K (Conventional):     0.005
   Time for Sigma-Completion:     0.008
   Size of expansion space: 20
   Lowest Energy          :     0.141568690746
   Maximum Energy change  :     0.001297052729 (vector 5)
   Maximum residual norm  :     0.000459598612
   Rebuilding the expansion space

                       ****Iteration    8****
   Time for densities:     0.006
   Time for J+K (Conventional):     0.004
   Time for Sigma-Completion:     0.009
   Size of expansion space: 20
   Lowest Energy          :     0.141567970181
   Maximum Energy change  :     0.001451863160 (vector 5)
   Maximum residual norm  :     0.000407661783
   Rebuilding the expansion space

                       ****Iteration    9****
   Time for densities:     0.006
   Time for J+K (Conventional):     0.004
   Time for Sigma-Completion:     0.008
   Size of expansion space: 20
   Lowest Energy          :     0.141567675817
   Maximum Energy change  :     0.001030128178 (vector 5)
   Maximum residual norm  :     0.000342943515
   Rebuilding the expansion space

                       ****Iteration   10****
   Time for densities:     0.006
   Time for J+K (Conventional):     0.004
   Time for Sigma-Completion:     0.008
   Size of expansion space: 20
   Lowest Energy          :     0.141567562879
   Maximum Energy change  :     0.001332755840 (vector 4)
   Maximum residual norm  :     0.000399100409
   Rebuilding the expansion space

                       ****Iteration   11****
   Time for densities:     0.007
   Time for J+K (Conventional):     0.004
   Time for Sigma-Completion:     0.009
   Size of expansion space: 20
   Lowest Energy          :     0.141567521993
   Maximum Energy change  :     0.001138574179 (vector 4)
   Maximum residual norm  :     0.000276313063
   Rebuilding the expansion space

                       ****Iteration   12****
   Time for densities:     0.006
   Time for J+K (Conventional):     0.005
   Time for Sigma-Completion:     0.008
   Size of expansion space: 20
   Lowest Energy          :     0.141567507325
   Maximum Energy change  :     0.000929180325 (vector 4)
   Maximum residual norm  :     0.000201462047
   Rebuilding the expansion space

                       ****Iteration   13****
   Time for densities:     0.006
   Time for J+K (Conventional):     0.005
   Time for Sigma-Completion:     0.008
   Size of expansion space: 20
   Lowest Energy          :     0.141567502944
   Maximum Energy change  :     0.000481821016 (vector 4)
   Maximum residual norm  :     0.000097394360
   Rebuilding the expansion space

                       ****Iteration   14****
   Time for densities:     0.005
   Time for J+K (Conventional):     0.006
   Time for Sigma-Completion:     0.010
   Size of expansion space: 20
   Lowest Energy          :     0.141567501586
   Maximum Energy change  :     0.000373361621 (vector 9)
   Maximum residual norm  :     0.000146266944
   Rebuilding the expansion space

                       ****Iteration   15****
   Time for densities:     0.006
   Time for J+K (Conventional):     0.004
   Time for Sigma-Completion:     0.008
   Size of expansion space: 20
   Lowest Energy          :     0.141567501214
   Maximum Energy change  :     0.000317396798 (vector 9)
   Maximum residual norm  :     0.000075153142
   Rebuilding the expansion space

                       ****Iteration   16****
   Time for densities:     0.006
   Time for J+K (Conventional):     0.004
   Time for Sigma-Completion:     0.008
   Size of expansion space: 20
   Lowest Energy          :     0.141567501108
   Maximum Energy change  :     0.000416215232 (vector 9)
   Maximum residual norm  :     0.000168293274
   Rebuilding the expansion space

                       ****Iteration   17****
   Time for densities:     0.006
   Time for J+K (Conventional):     0.004
   Time for Sigma-Completion:     0.009
   Size of expansion space: 20
   Lowest Energy          :     0.141567501078
   Maximum Energy change  :     0.000241893630 (vector 9)
   Maximum residual norm  :     0.000035593654
   Rebuilding the expansion space

                       ****Iteration   18****
   Time for densities:     0.006
   Time for J+K (Conventional):     0.005
   Time for Sigma-Completion:     0.010
   Size of expansion space: 20
   Lowest Energy          :     0.141567501070
   Maximum Energy change  :     0.000186866661 (vector 8)
   Maximum residual norm  :     0.000079559520
   Rebuilding the expansion space

                       ****Iteration   19****
   Time for densities:     0.006
   Time for J+K (Conventional):     0.004
   Time for Sigma-Completion:     0.008
   Size of expansion space: 20
   Lowest Energy          :     0.141567501067
   Maximum Energy change  :     0.000173531435 (vector 8)
   Maximum residual norm  :     0.000031765137
   Rebuilding the expansion space

                       ****Iteration   20****
   Time for densities:     0.006
   Time for J+K (Conventional):     0.005
   Time for Sigma-Completion:     0.009
   Size of expansion space: 20
   Lowest Energy          :     0.141567501067
   Maximum Energy change  :     0.000159793080 (vector 8)
   Maximum residual norm  :     0.000068693963
   Rebuilding the expansion space

                       ****Iteration   21****
   Time for densities:     0.006
   Time for J+K (Conventional):     0.005
   Time for Sigma-Completion:     0.008
   Size of expansion space: 20
   Lowest Energy          :     0.141567501066
   Maximum Energy change  :     0.000147944297 (vector 8)
   Maximum residual norm  :     0.000030668664
   Rebuilding the expansion space

                       ****Iteration   22****
   Time for densities:     0.006
   Time for J+K (Conventional):     0.004
   Time for Sigma-Completion:     0.008
   Size of expansion space: 20
   Lowest Energy          :     0.141567501066
   Maximum Energy change  :     0.000134299657 (vector 8)
   Maximum residual norm  :     0.000052128257
   Rebuilding the expansion space

                       ****Iteration   23****
   Time for densities:     0.006
   Time for J+K (Conventional):     0.006
   Time for Sigma-Completion:     0.010
   Size of expansion space: 20
   Lowest Energy          :     0.141567501066
   Maximum Energy change  :     0.000122163364 (vector 8)
   Maximum residual norm  :     0.000029096223
   Rebuilding the expansion space

                       ****Iteration   24****
   Time for densities:     0.006
   Time for J+K (Conventional):     0.004
   Time for Sigma-Completion:     0.009
   Size of expansion space: 20
   Lowest Energy          :     0.141567501066
   Maximum Energy change  :     0.000110192162 (vector 8)
   Maximum residual norm  :     0.000038336923
   Rebuilding the expansion space

                       ****Iteration   25****
   Time for densities:     0.005
   Time for J+K (Conventional):     0.004
   Time for Sigma-Completion:     0.008
   Size of expansion space: 19
   Lowest Energy          :     0.141567501066
   Maximum Energy change  :     0.000096673646 (vector 8)
   Maximum residual norm  :     0.000025657392
   Rebuilding the expansion space

                       ****Iteration   26****
   Time for densities:     0.005
   Time for J+K (Conventional):     0.005
   Time for Sigma-Completion:     0.009
   Size of expansion space: 19
   Lowest Energy          :     0.141567501066
   Maximum Energy change  :     0.000087743731 (vector 8)
   Maximum residual norm  :     0.000028606411
   Rebuilding the expansion space

                       ****Iteration   27****
   Time for densities:     0.005
   Time for J+K (Conventional):     0.004
   Time for Sigma-Completion:     0.008
   Size of expansion space: 18
   Lowest Energy          :     0.141567501066
   Maximum Energy change  :     0.000076005299 (vector 8)
   Maximum residual norm  :     0.000019205318
   Rebuilding the expansion space

                       ****Iteration   28****
   Time for densities:     0.006
   Time for J+K (Conventional):     0.004
   Time for Sigma-Completion:     0.008
   Size of expansion space: 18
   Lowest Energy          :     0.141567501066
   Maximum Energy change  :     0.000069579142 (vector 8)
   Maximum residual norm  :     0.000024408057
   Rebuilding the expansion space

                       ****Iteration   29****
   Time for densities:     0.005
   Time for J+K (Conventional):     0.003
   Time for Sigma-Completion:     0.007
   Size of expansion space: 17
   Lowest Energy          :     0.141567501066
   Maximum Energy change  :     0.000051555078 (vector 8)
   Maximum residual norm  :     0.000010213109
   Rebuilding the expansion space

                       ****Iteration   30****
   Time for densities:     0.005
   Time for J+K (Conventional):     0.004
   Time for Sigma-Completion:     0.007
   Size of expansion space: 17
   Lowest Energy          :     0.141567501066
   Maximum Energy change  :     0.000042522616 (vector 8)
   Maximum residual norm  :     0.000016643915
   Rebuilding the expansion space

                       ****Iteration   31****
   Time for densities:     0.005
   Time for J+K (Conventional):     0.004
   Time for Sigma-Completion:     0.008
   Size of expansion space: 17
   Lowest Energy          :     0.141567501066
   Maximum Energy change  :     0.000033508599 (vector 8)
   Maximum residual norm  :     0.000005718744
   Rebuilding the expansion space

                       ****Iteration   32****
   Time for densities:     0.005
   Time for J+K (Conventional):     0.004
   Time for Sigma-Completion:     0.007
   Size of expansion space: 17
   Lowest Energy          :     0.141567501066
   Maximum Energy change  :     0.000030574098 (vector 8)
   Maximum residual norm  :     0.000013757225
   Rebuilding the expansion space

                       ****Iteration   33****
   Time for densities:     0.006
   Time for J+K (Conventional):     0.003
   Time for Sigma-Completion:     0.008
   Size of expansion space: 17
   Lowest Energy          :     0.141567501066
   Maximum Energy change  :     0.000026548918 (vector 8)
   Maximum residual norm  :     0.000004399692
   Rebuilding the expansion space

                       ****Iteration   34****
   Time for densities:     0.005
   Time for J+K (Conventional):     0.004
   Time for Sigma-Completion:     0.007
   Size of expansion space: 17
   Lowest Energy          :     0.141567501066
   Maximum Energy change  :     0.000024009026 (vector 8)
   Maximum residual norm  :     0.000009984313
   Rebuilding the expansion space

                       ****Iteration   35****
   Time for densities:     0.006
   Time for J+K (Conventional):     0.004
   Time for Sigma-Completion:     0.007
   Size of expansion space: 17
   Lowest Energy          :     0.141567501066
   Maximum Energy change  :     0.000023188444 (vector 8)
   Maximum residual norm  :     0.000004225851
   Rebuilding the expansion space

                       ****Iteration   36****
   Time for densities:     0.005
   Time for J+K (Conventional):     0.004
   Time for Sigma-Completion:     0.009
   Size of expansion space: 17
   Lowest Energy          :     0.141567501066
   Maximum Energy change  :     0.000020215964 (vector 8)
   Maximum residual norm  :     0.000005489118
   Rebuilding the expansion space

                       ****Iteration   37****
   Time for densities:     0.005
   Time for J+K (Conventional):     0.004
   Time for Sigma-Completion:     0.007
   Size of expansion space: 17
   Lowest Energy          :     0.141567501066
   Maximum Energy change  :     0.000014748653 (vector 8)
   Maximum residual norm  :     0.000003041703
   Rebuilding the expansion space

                       ****Iteration   38****
   Time for densities:     0.007
   Time for J+K (Conventional):     0.004
   Time for Sigma-Completion:     0.007
   Size of expansion space: 17
   Lowest Energy          :     0.141567501066
   Maximum Energy change  :     0.000012619976 (vector 8)
   Maximum residual norm  :     0.000003684585
   Rebuilding the expansion space

                       ****Iteration   39****
   Time for densities:     0.005
   Time for J+K (Conventional):     0.004
   Time for Sigma-Completion:     0.007
   Size of expansion space: 17
   Lowest Energy          :     0.141567501066
   Maximum Energy change  :     0.000011749760 (vector 8)
   Maximum residual norm  :     0.000002974713
   Rebuilding the expansion space

                       ****Iteration   40****
   Time for densities:     0.005
   Time for J+K (Conventional):     0.004
   Time for Sigma-Completion:     0.007
   Size of expansion space: 17
   Lowest Energy          :     0.141567501066
   Maximum Energy change  :     0.000009040178 (vector 8)
   Maximum residual norm  :     0.000002176070
   Rebuilding the expansion space

                       ****Iteration   41****
   Time for densities:     0.005
   Time for J+K (Conventional):     0.006
   Time for Sigma-Completion:     0.009
   Size of expansion space: 17
   Lowest Energy          :     0.141567501066
   Maximum Energy change  :     0.000006363438 (vector 8)
   Maximum residual norm  :     0.000001699401
   Rebuilding the expansion space

                       ****Iteration   42****
   Time for densities:     0.005
   Time for J+K (Conventional):     0.004
   Time for Sigma-Completion:     0.007
   Size of expansion space: 16
   Lowest Energy          :     0.141567501066
   Maximum Energy change  :     0.000004770962 (vector 8)
   Maximum residual norm  :     0.000001153900
   Rebuilding the expansion space

                       ****Iteration   43****
   Time for densities:     0.007
   Time for J+K (Conventional):     0.005
   Time for Sigma-Completion:     0.007
   Size of expansion space: 16
   Lowest Energy          :     0.141567501066
   Maximum Energy change  :     0.000004115292 (vector 8)
   Maximum residual norm  :     0.000001520908
   Rebuilding the expansion space

                       ****Iteration   44****
   Time for densities:     0.005
   Time for J+K (Conventional):     0.004
   Time for Sigma-Completion:     0.007
   Size of expansion space: 16
   Lowest Energy          :     0.141567501066
   Maximum Energy change  :     0.000003172232 (vector 8)
   Maximum residual norm  :     0.000000551708
   Rebuilding the expansion space

                       ****Iteration   45****
   Time for densities:     0.007
   Time for J+K (Conventional):     0.006
   Time for Sigma-Completion:     0.007
   Size of expansion space: 16
   Lowest Energy          :     0.141567501066
   Maximum Energy change  :     0.000002778090 (vector 8)
   Maximum residual norm  :     0.000001185546
   Rebuilding the expansion space

                       ****Iteration   46****
   Time for densities:     0.005
   Time for J+K (Conventional):     0.005
   Time for Sigma-Completion:     0.008
   Size of expansion space: 16
   Lowest Energy          :     0.141567501066
   Maximum Energy change  :     0.000002472067 (vector 8)
   Maximum residual norm  :     0.000000439981
   Rebuilding the expansion space

                       ****Iteration   47****
   Time for densities:     0.005
   Time for J+K (Conventional):     0.004
   Time for Sigma-Completion:     0.007
   Size of expansion space: 16
   Lowest Energy          :     0.141567501066
   Maximum Energy change  :     0.000001935133 (vector 8)
   Maximum residual norm  :     0.000000688553
   Rebuilding the expansion space

                       ****Iteration   48****
   Time for densities:     0.006
   Time for J+K (Conventional):     0.006
   Time for Sigma-Completion:     0.007
   Size of expansion space: 16
   Lowest Energy          :     0.141567501066
   Maximum Energy change  :     0.000002211929 (vector 8)
   Maximum residual norm  :     0.000000630373
   Rebuilding the expansion space

                       ****Iteration   49****
   Time for densities:     0.004
   Time for J+K (Conventional):     0.004
   Time for Sigma-Completion:     0.006
   Size of expansion space: 15
   Lowest Energy          :     0.141567501066
   Maximum Energy change  :     0.000001466900 (vector 8)
   Maximum residual norm  :     0.000000373776

                       ****Iteration   50****
   Time for densities:     0.002
   Time for J+K (Conventional):     0.004
   Time for Sigma-Completion:     0.003
   Size of expansion space: 20
   Lowest Energy          :     0.141567501066
   Maximum Energy change  :     0.000004217866 (vector 8)
   Maximum residual norm  :     0.000000312547
   Rebuilding the expansion space

                       ****Iteration   51****
   Time for densities:     0.004
   Time for J+K (Conventional):     0.004
   Time for Sigma-Completion:     0.006
   Size of expansion space: 15
   Lowest Energy          :     0.141567501066
   Maximum Energy change  :     0.000001107977 (vector 8)
   Maximum residual norm  :     0.000000090497

      *** CONVERGENCE OF RESIDUAL NORM REACHED ***

Storing the converged CI vectors               ... AAGZWACRJUOJKJ-UHFFFAOYSA-N.cis1

                 *** DAVIDSON DONE ***

Total time for solving the CIS problem:     1.384sec

-----------------------------
CIS-EXCITED STATES (SINGLETS)
-----------------------------

the weight of the individual excitations are printed if larger than 0.01

STATE  1:  E=   0.141568 au      3.852 eV    31070.5 cm**-1
    43a ->  46a  :     0.034772 (c=  0.18647335)
    44a ->  46a  :     0.019422 (c=  0.13936419)
    45a ->  46a  :     0.882569 (c= -0.93945143)

STATE  2:  E=   0.156169 au      4.250 eV    34275.1 cm**-1
    41a ->  46a  :     0.073051 (c=  0.27028002)
    41a ->  49a  :     0.012225 (c= -0.11056866)
    41a ->  50a  :     0.052752 (c=  0.22967875)
    42a ->  46a  :     0.481157 (c= -0.69365472)
    42a ->  47a  :     0.017527 (c= -0.13238847)
    42a ->  49a  :     0.066058 (c=  0.25701730)
    42a ->  50a  :     0.254516 (c= -0.50449604)
    42a ->  54a  :     0.014458 (c=  0.12024157)

STATE  3:  E=   0.160337 au      4.363 eV    35190.0 cm**-1
    43a ->  48a  :     0.119708 (c=  0.34598802)
    44a ->  46a  :     0.063079 (c= -0.25115477)
    44a ->  47a  :     0.270616 (c=  0.52020718)
    44a ->  48a  :     0.041277 (c= -0.20316804)
    45a ->  47a  :     0.180623 (c=  0.42499762)
    45a ->  48a  :     0.301831 (c=  0.54939108)

STATE  4:  E=   0.177329 au      4.825 eV    38919.1 cm**-1
    43a ->  46a  :     0.019970 (c=  0.14131580)
    43a ->  47a  :     0.033790 (c= -0.18381970)
    44a ->  47a  :     0.026700 (c=  0.16340200)
    44a ->  48a  :     0.107539 (c=  0.32793086)
    45a ->  47a  :     0.438913 (c= -0.66250497)
    45a ->  48a  :     0.252852 (c=  0.50284430)
    45a ->  49a  :     0.057115 (c= -0.23898703)

STATE  5:  E=   0.181898 au      4.950 eV    39922.0 cm**-1
    32a ->  52a  :     0.023139 (c=  0.15211479)
    39a ->  52a  :     0.015293 (c= -0.12366297)
    40a ->  52a  :     0.028782 (c= -0.16965213)
    41a ->  46a  :     0.180066 (c= -0.42434157)
    41a ->  50a  :     0.149323 (c=  0.38642324)
    41a ->  54a  :     0.105001 (c=  0.32403931)
    41a ->  55a  :     0.038045 (c=  0.19505210)
    42a ->  46a  :     0.028719 (c= -0.16946617)
    42a ->  50a  :     0.038295 (c=  0.19569072)
    42a ->  54a  :     0.016301 (c=  0.12767519)
    43a ->  46a  :     0.010712 (c=  0.10349713)
    43a ->  51a  :     0.019731 (c=  0.14046738)
    43a ->  52a  :     0.083311 (c=  0.28863684)
    44a ->  52a  :     0.011887 (c=  0.10902594)
    45a ->  50a  :     0.013466 (c=  0.11604462)
    45a ->  51a  :     0.031125 (c= -0.17642252)
    45a ->  52a  :     0.083211 (c= -0.28846324)

STATE  6:  E=   0.187740 au      5.109 eV    41204.1 cm**-1
    43a ->  46a  :     0.023689 (c=  0.15391092)
    43a ->  47a  :     0.013511 (c= -0.11623645)
    43a ->  49a  :     0.011228 (c= -0.10596134)
    44a ->  46a  :     0.015641 (c=  0.12506240)
    44a ->  47a  :     0.018599 (c=  0.13637987)
    44a ->  48a  :     0.066255 (c=  0.25740017)
    45a ->  49a  :     0.738263 (c=  0.85922225)
    45a ->  50a  :     0.031606 (c=  0.17778172)
    45a ->  51a  :     0.010207 (c= -0.10103119)

STATE  7:  E=   0.193436 au      5.264 eV    42454.3 cm**-1
    41a ->  52a  :     0.024779 (c= -0.15741231)
    43a ->  46a  :     0.513975 (c=  0.71692071)
    43a ->  50a  :     0.011472 (c= -0.10710929)
    44a ->  46a  :     0.205461 (c=  0.45327787)
    45a ->  46a  :     0.069370 (c=  0.26338208)
    45a ->  47a  :     0.046691 (c=  0.21608026)
    45a ->  49a  :     0.025596 (c= -0.15998760)

STATE  8:  E=   0.196946 au      5.359 eV    43224.7 cm**-1
    40a ->  52a  :     0.016242 (c=  0.12744354)
    41a ->  46a  :     0.066816 (c= -0.25848808)
    41a ->  50a  :     0.041101 (c=  0.20273274)
    41a ->  51a  :     0.011952 (c=  0.10932581)
    41a ->  52a  :     0.055722 (c=  0.23605520)
    41a ->  54a  :     0.025990 (c=  0.16121343)
    42a ->  46a  :     0.014423 (c= -0.12009598)
    42a ->  52a  :     0.013772 (c=  0.11735520)
    43a ->  46a  :     0.012485 (c=  0.11173442)
    43a ->  49a  :     0.012608 (c= -0.11228488)
    43a ->  50a  :     0.115503 (c=  0.33985750)
    43a ->  51a  :     0.014487 (c= -0.12036227)
    43a ->  52a  :     0.037328 (c= -0.19320495)
    44a ->  50a  :     0.027847 (c=  0.16687309)
    45a ->  49a  :     0.022873 (c=  0.15123778)
    45a ->  50a  :     0.293440 (c= -0.54170097)
    45a ->  51a  :     0.036631 (c=  0.19139182)
    45a ->  52a  :     0.039717 (c=  0.19929022)

STATE  9:  E=   0.198781 au      5.409 eV    43627.4 cm**-1
    32a ->  52a  :     0.020002 (c=  0.14142901)
    39a ->  52a  :     0.014935 (c= -0.12220782)
    40a ->  52a  :     0.019406 (c= -0.13930575)
    41a ->  46a  :     0.054459 (c=  0.23336489)
    41a ->  50a  :     0.031068 (c= -0.17626187)
    41a ->  52a  :     0.042108 (c=  0.20520317)
    41a ->  54a  :     0.016447 (c= -0.12824661)
    43a ->  50a  :     0.054148 (c=  0.23269757)
    43a ->  51a  :     0.033979 (c=  0.18433369)
    43a ->  52a  :     0.102413 (c=  0.32002074)
    44a ->  46a  :     0.106525 (c=  0.32638233)
    44a ->  52a  :     0.018139 (c=  0.13468067)
    45a ->  50a  :     0.139592 (c= -0.37362037)
    45a ->  51a  :     0.063441 (c= -0.25187552)
    45a ->  52a  :     0.130126 (c= -0.36072945)

STATE 10:  E=   0.201117 au      5.473 eV    44140.1 cm**-1
    43a ->  46a  :     0.209961 (c=  0.45821536)
    43a ->  51a  :     0.012350 (c=  0.11113173)
    44a ->  46a  :     0.416747 (c= -0.64555911)
    44a ->  47a  :     0.031388 (c=  0.17716715)
    45a ->  47a  :     0.037653 (c= -0.19404503)
    45a ->  48a  :     0.104123 (c= -0.32268097)
    45a ->  50a  :     0.031584 (c= -0.17771827)
    45a ->  51a  :     0.049692 (c= -0.22291731)


                  ********************************
                  * Entering triplet calculation *
                  ********************************

------------------------
DAVIDSON-DIAGONALIZATION
------------------------

Dimension of the eigenvalue problem            ...   1702
Number of roots to be determined               ...     10
Maximum size of the expansion space            ...     25
Convergence tolerance for the residual         ...    2.500e-07
Convergence tolerance for the energies         ...    2.500e-07
Orthogonality tolerance                        ...    1.000e-14
Level Shift                                    ...    0.000e+00
Constructing the preconditioner                ... o.k.
Building the initial guess                     ... o.k.
Number of trial vectors determined             ...     20


                       ****Iteration    0****
                <<< Triplet sigma vectors requested >>>

   Memory handling for direct AO based CIS:
   Memory per vector needed      ...     1 MB
   Memory needed                 ...     3 MB
   Memory available              ...   512 MB
   Number of vectors per batch   ...   512
   Number of batches             ...     1
   Time for densities:     0.008
   Time for K (Conventional):     0.005
   Time for Sigma-Completion:     0.008
   Size of expansion space: 20
   Lowest Energy          :     0.089304801428
   Maximum Energy change  :     0.205873966188 (vector 9)
   Maximum residual norm  :     0.007112902665
   Rebuilding the expansion space

                       ****Iteration    1****
   Time for densities:     0.006
   Time for K (Conventional):     0.006
   Time for Sigma-Completion:     0.011
   Size of expansion space: 20
   Lowest Energy          :     0.073083002815
   Maximum Energy change  :     0.027627262643 (vector 8)
   Maximum residual norm  :     0.001094077557
   Rebuilding the expansion space

                       ****Iteration    2****
   Time for densities:     0.006
   Time for K (Conventional):     0.004
   Time for Sigma-Completion:     0.010
   Size of expansion space: 20
   Lowest Energy          :     0.072653479941
   Maximum Energy change  :     0.005621215845 (vector 7)
   Maximum residual norm  :     0.000334749052
   Rebuilding the expansion space

                       ****Iteration    3****
   Time for densities:     0.006
   Time for K (Conventional):     0.004
   Time for Sigma-Completion:     0.008
   Size of expansion space: 20
   Lowest Energy          :     0.072620599240
   Maximum Energy change  :     0.003151995699 (vector 9)
   Maximum residual norm  :     0.000260420198
   Rebuilding the expansion space

                       ****Iteration    4****
   Time for densities:     0.008
   Time for K (Conventional):     0.005
   Time for Sigma-Completion:     0.009
   Size of expansion space: 20
   Lowest Energy          :     0.072615574465
   Maximum Energy change  :     0.004198164149 (vector 9)
   Maximum residual norm  :     0.000649996167
   Rebuilding the expansion space

                       ****Iteration    5****
   Time for densities:     0.006
   Time for K (Conventional):     0.004
   Time for Sigma-Completion:     0.008
   Size of expansion space: 20
   Lowest Energy          :     0.072614419169
   Maximum Energy change  :     0.004962152744 (vector 9)
   Maximum residual norm  :     0.000454028524
   Rebuilding the expansion space

                       ****Iteration    6****
   Time for densities:     0.006
   Time for K (Conventional):     0.006
   Time for Sigma-Completion:     0.009
   Size of expansion space: 20
   Lowest Energy          :     0.072614093083
   Maximum Energy change  :     0.004590902918 (vector 9)
   Maximum residual norm  :     0.000793948937
   Rebuilding the expansion space

                       ****Iteration    7****
   Time for densities:     0.006
   Time for K (Conventional):     0.005
   Time for Sigma-Completion:     0.009
   Size of expansion space: 20
   Lowest Energy          :     0.072613992083
   Maximum Energy change  :     0.003630667518 (vector 9)
   Maximum residual norm  :     0.000474204361
   Rebuilding the expansion space

                       ****Iteration    8****
   Time for densities:     0.006
   Time for K (Conventional):     0.004
   Time for Sigma-Completion:     0.009
   Size of expansion space: 20
   Lowest Energy          :     0.072613959226
   Maximum Energy change  :     0.002593611340 (vector 9)
   Maximum residual norm  :     0.000605264886
   Rebuilding the expansion space

                       ****Iteration    9****
   Time for densities:     0.007
   Time for K (Conventional):     0.004
   Time for Sigma-Completion:     0.008
   Size of expansion space: 20
   Lowest Energy          :     0.072613948327
   Maximum Energy change  :     0.001949856206 (vector 9)
   Maximum residual norm  :     0.000418012206
   Rebuilding the expansion space

                       ****Iteration   10****
   Time for densities:     0.006
   Time for K (Conventional):     0.004
   Time for Sigma-Completion:     0.011
   Size of expansion space: 20
   Lowest Energy          :     0.072613944671
   Maximum Energy change  :     0.001601423856 (vector 9)
   Maximum residual norm  :     0.000489995363
   Rebuilding the expansion space

                       ****Iteration   11****
   Time for densities:     0.006
   Time for K (Conventional):     0.004
   Time for Sigma-Completion:     0.008
   Size of expansion space: 20
   Lowest Energy          :     0.072613943442
   Maximum Energy change  :     0.001371915467 (vector 9)
   Maximum residual norm  :     0.000372434822
   Rebuilding the expansion space

                       ****Iteration   12****
   Time for densities:     0.006
   Time for K (Conventional):     0.004
   Time for Sigma-Completion:     0.009
   Size of expansion space: 20
   Lowest Energy          :     0.072613943027
   Maximum Energy change  :     0.001232425393 (vector 9)
   Maximum residual norm  :     0.000410451197
   Rebuilding the expansion space

                       ****Iteration   13****
   Time for densities:     0.006
   Time for K (Conventional):     0.005
   Time for Sigma-Completion:     0.009
   Size of expansion space: 20
   Lowest Energy          :     0.072613942887
   Maximum Energy change  :     0.001035296991 (vector 9)
   Maximum residual norm  :     0.000274783951
   Rebuilding the expansion space

                       ****Iteration   14****
   Time for densities:     0.007
   Time for K (Conventional):     0.006
   Time for Sigma-Completion:     0.011
   Size of expansion space: 20
   Lowest Energy          :     0.072613942840
   Maximum Energy change  :     0.000882278344 (vector 9)
   Maximum residual norm  :     0.000301640981
   Rebuilding the expansion space

                       ****Iteration   15****
   Time for densities:     0.006
   Time for K (Conventional):     0.004
   Time for Sigma-Completion:     0.008
   Size of expansion space: 20
   Lowest Energy          :     0.072613942825
   Maximum Energy change  :     0.000632377486 (vector 9)
   Maximum residual norm  :     0.000137218649
   Rebuilding the expansion space

                       ****Iteration   16****
   Time for densities:     0.006
   Time for K (Conventional):     0.004
   Time for Sigma-Completion:     0.008
   Size of expansion space: 20
   Lowest Energy          :     0.072613942819
   Maximum Energy change  :     0.000460760726 (vector 9)
   Maximum residual norm  :     0.000171278220
   Rebuilding the expansion space

                       ****Iteration   17****
   Time for densities:     0.006
   Time for K (Conventional):     0.005
   Time for Sigma-Completion:     0.009
   Size of expansion space: 20
   Lowest Energy          :     0.072613942817
   Maximum Energy change  :     0.000372686294 (vector 8)
   Maximum residual norm  :     0.000084486520
   Rebuilding the expansion space

                       ****Iteration   18****
   Time for densities:     0.005
   Time for K (Conventional):     0.004
   Time for Sigma-Completion:     0.008
   Size of expansion space: 19
   Lowest Energy          :     0.072613942817
   Maximum Energy change  :     0.000377251239 (vector 8)
   Maximum residual norm  :     0.000183506493
   Rebuilding the expansion space

                       ****Iteration   19****
   Time for densities:     0.005
   Time for K (Conventional):     0.004
   Time for Sigma-Completion:     0.010
   Size of expansion space: 19
   Lowest Energy          :     0.072613942817
   Maximum Energy change  :     0.000303405396 (vector 8)
   Maximum residual norm  :     0.000050908456
   Rebuilding the expansion space

                       ****Iteration   20****
   Time for densities:     0.005
   Time for K (Conventional):     0.004
   Time for Sigma-Completion:     0.008
   Size of expansion space: 19
   Lowest Energy          :     0.072613942817
   Maximum Energy change  :     0.000257797995 (vector 8)
   Maximum residual norm  :     0.000136460411
   Rebuilding the expansion space

                       ****Iteration   21****
   Time for densities:     0.005
   Time for K (Conventional):     0.004
   Time for Sigma-Completion:     0.008
   Size of expansion space: 19
   Lowest Energy          :     0.072613942817
   Maximum Energy change  :     0.000192836611 (vector 8)
   Maximum residual norm  :     0.000027797617
   Rebuilding the expansion space

                       ****Iteration   22****
   Time for densities:     0.005
   Time for K (Conventional):     0.004
   Time for Sigma-Completion:     0.008
   Size of expansion space: 18
   Lowest Energy          :     0.072613942816
   Maximum Energy change  :     0.000142410960 (vector 8)
   Maximum residual norm  :     0.000076264544
   Rebuilding the expansion space

                       ****Iteration   23****
   Time for densities:     0.005
   Time for K (Conventional):     0.004
   Time for Sigma-Completion:     0.008
   Size of expansion space: 18
   Lowest Energy          :     0.072613942816
   Maximum Energy change  :     0.000106871922 (vector 8)
   Maximum residual norm  :     0.000017530178
   Rebuilding the expansion space

                       ****Iteration   24****
   Time for densities:     0.005
   Time for K (Conventional):     0.005
   Time for Sigma-Completion:     0.008
   Size of expansion space: 18
   Lowest Energy          :     0.072613942816
   Maximum Energy change  :     0.000072859809 (vector 8)
   Maximum residual norm  :     0.000035676244
   Rebuilding the expansion space

                       ****Iteration   25****
   Time for densities:     0.005
   Time for K (Conventional):     0.003
   Time for Sigma-Completion:     0.008
   Size of expansion space: 18
   Lowest Energy          :     0.072613942816
   Maximum Energy change  :     0.000057240235 (vector 8)
   Maximum residual norm  :     0.000013537355
   Rebuilding the expansion space

                       ****Iteration   26****
   Time for densities:     0.005
   Time for K (Conventional):     0.004
   Time for Sigma-Completion:     0.007
   Size of expansion space: 18
   Lowest Energy          :     0.072613942816
   Maximum Energy change  :     0.000037840960 (vector 8)
[...]
   Time for Sigma-Completion:     0.002
   Size of expansion space: 18
   Lowest Energy          :     0.072613942816
   Maximum Energy change  :     0.000070918807 (vector 9)
   Maximum residual norm  :     0.000019626312
   Rebuilding the expansion space

                       ****Iteration   86****
   Time for densities:     0.004
   Time for K (Conventional):     0.003
   Time for Sigma-Completion:     0.006
   Size of expansion space: 14
   Lowest Energy          :     0.072613942816
   Maximum Energy change  :     0.000067598607 (vector 9)
   Maximum residual norm  :     0.000016298322

                       ****Iteration   87****
   Time for densities:     0.001
   Time for K (Conventional):     0.003
   Time for Sigma-Completion:     0.002
   Size of expansion space: 18
   Lowest Energy          :     0.072613942816
   Maximum Energy change  :     0.000070234108 (vector 9)
   Maximum residual norm  :     0.000025479801
   Rebuilding the expansion space

                       ****Iteration   88****
   Time for densities:     0.004
   Time for K (Conventional):     0.004
   Time for Sigma-Completion:     0.006
   Size of expansion space: 14
   Lowest Energy          :     0.072613942816
   Maximum Energy change  :     0.000064959626 (vector 9)
   Maximum residual norm  :     0.000016076582

                       ****Iteration   89****
   Time for densities:     0.001
   Time for K (Conventional):     0.003
   Time for Sigma-Completion:     0.002
   Size of expansion space: 18
   Lowest Energy          :     0.072613942816
   Maximum Energy change  :     0.000065886262 (vector 9)
   Maximum residual norm  :     0.000016074993
   Rebuilding the expansion space

                       ****Iteration   90****
   Time for densities:     0.004
   Time for K (Conventional):     0.003
   Time for Sigma-Completion:     0.006
   Size of expansion space: 14
   Lowest Energy          :     0.072613942816
   Maximum Energy change  :     0.000061900439 (vector 9)
   Maximum residual norm  :     0.000014521926

                       ****Iteration   91****
   Time for densities:     0.001
   Time for K (Conventional):     0.005
   Time for Sigma-Completion:     0.003
   Size of expansion space: 17
   Lowest Energy          :     0.072613942816
   Maximum Energy change  :     0.000063000681 (vector 9)
   Maximum residual norm  :     0.000025306589
   Rebuilding the expansion space

                       ****Iteration   92****
   Time for densities:     0.004
   Time for K (Conventional):     0.004
   Time for Sigma-Completion:     0.006
   Size of expansion space: 14
   Lowest Energy          :     0.072613942816
   Maximum Energy change  :     0.000058882540 (vector 9)
   Maximum residual norm  :     0.000013639640

                       ****Iteration   93****
   Time for densities:     0.001
   Time for K (Conventional):     0.003
   Time for Sigma-Completion:     0.002
   Size of expansion space: 18
   Lowest Energy          :     0.072613942816
   Maximum Energy change  :     0.000056589890 (vector 9)
   Maximum residual norm  :     0.000015383759
   Rebuilding the expansion space

                       ****Iteration   94****
   Time for densities:     0.004
   Time for K (Conventional):     0.003
   Time for Sigma-Completion:     0.006
   Size of expansion space: 14
   Lowest Energy          :     0.072613942816
   Maximum Energy change  :     0.000051682804 (vector 9)
   Maximum residual norm  :     0.000012620383

                       ****Iteration   95****
   Time for densities:     0.001
   Time for K (Conventional):     0.003
   Time for Sigma-Completion:     0.001
   Size of expansion space: 17
   Lowest Energy          :     0.072613942816
   Maximum Energy change  :     0.000052682000 (vector 9)
   Maximum residual norm  :     0.000017192320
   Rebuilding the expansion space

                       ****Iteration   96****
   Time for densities:     0.004
   Time for K (Conventional):     0.004
   Time for Sigma-Completion:     0.006
   Size of expansion space: 14
   Lowest Energy          :     0.072613942816
   Maximum Energy change  :     0.000049008718 (vector 9)
   Maximum residual norm  :     0.000011484169

                       ****Iteration   97****
   Time for densities:     0.001
   Time for K (Conventional):     0.003
   Time for Sigma-Completion:     0.001
   Size of expansion space: 17
   Lowest Energy          :     0.072613942816
   Maximum Energy change  :     0.000045012444 (vector 9)
   Maximum residual norm  :     0.000014008131
   Rebuilding the expansion space

                       ****Iteration   98****
   Time for densities:     0.004
   Time for K (Conventional):     0.004
   Time for Sigma-Completion:     0.007
   Size of expansion space: 14
   Lowest Energy          :     0.072613942816
   Maximum Energy change  :     0.000040876012 (vector 9)
   Maximum residual norm  :     0.000010144350

                       ****Iteration   99****
   Time for densities:     0.001
   Time for K (Conventional):     0.003
   Time for Sigma-Completion:     0.002
   Size of expansion space: 17
   Lowest Energy          :     0.072613942816
   Maximum Energy change  :     0.000042332338 (vector 9)
   Maximum residual norm  :     0.000012382494
   Rebuilding the expansion space
                 *** DAVIDSON DONE ***

-----------------------------
CIS EXCITED STATES (TRIPLETS)
-----------------------------

the weight of the individual excitations are printed if larger than 0.01

STATE  1:  E=   0.072614 au      1.976 eV    15936.9 cm**-1
    43a ->  46a  :     0.137402 (c=  0.37067796)
    43a ->  47a  :     0.075462 (c=  0.27470408)
    43a ->  50a  :     0.030254 (c= -0.17393737)
    44a ->  46a  :     0.030354 (c=  0.17422394)
    44a ->  47a  :     0.013517 (c= -0.11626172)
    44a ->  48a  :     0.111779 (c= -0.33433335)
    45a ->  46a  :     0.408605 (c= -0.63922231)
    45a ->  47a  :     0.055745 (c=  0.23610466)
    45a ->  48a  :     0.033198 (c= -0.18220184)
    45a ->  50a  :     0.012374 (c=  0.11123726)

STATE  2:  E=   0.075937 au      2.066 eV    16666.2 cm**-1
    33a ->  55a  :     0.010745 (c= -0.10365814)
    43a ->  46a  :     0.187361 (c=  0.43285163)
    43a ->  47a  :     0.083016 (c= -0.28812484)
    44a ->  46a  :     0.022763 (c=  0.15087553)
    44a ->  47a  :     0.037309 (c=  0.19315611)
    44a ->  48a  :     0.198417 (c=  0.44543978)
    45a ->  46a  :     0.082598 (c= -0.28739798)
    45a ->  47a  :     0.172303 (c= -0.41509395)
    45a ->  48a  :     0.080422 (c=  0.28358715)
    45a ->  50a  :     0.033622 (c=  0.18336197)

STATE  3:  E=   0.127341 au      3.465 eV    27948.0 cm**-1
    43a ->  46a  :     0.014046 (c= -0.11851398)
    43a ->  47a  :     0.125181 (c=  0.35380904)
    44a ->  46a  :     0.011134 (c=  0.10551844)
    44a ->  48a  :     0.305833 (c=  0.55302131)
    45a ->  47a  :     0.320665 (c=  0.56627324)
    45a ->  48a  :     0.181592 (c=  0.42613595)

STATE  4:  E=   0.128899 au      3.508 eV    28290.1 cm**-1
    43a ->  48a  :     0.124644 (c= -0.35304909)
    44a ->  46a  :     0.033272 (c= -0.18240603)
    44a ->  47a  :     0.439083 (c=  0.66263304)
    44a ->  48a  :     0.078600 (c=  0.28035644)
    45a ->  46a  :     0.017615 (c= -0.13272165)
    45a ->  47a  :     0.060714 (c=  0.24640281)
    45a ->  48a  :     0.212277 (c= -0.46073573)

STATE  5:  E=   0.143367 au      3.901 eV    31465.4 cm**-1
    41a ->  46a  :     0.071411 (c=  0.26722870)
    41a ->  49a  :     0.012338 (c= -0.11107688)
    41a ->  50a  :     0.051053 (c=  0.22594916)
    42a ->  46a  :     0.458249 (c= -0.67694059)
    42a ->  47a  :     0.017645 (c= -0.13283550)
    42a ->  49a  :     0.067539 (c=  0.25988268)
    42a ->  50a  :     0.267520 (c= -0.51722316)
    42a ->  54a  :     0.015645 (c=  0.12507979)

STATE  6:  E=   0.147081 au      4.002 eV    32280.5 cm**-1
    32a ->  46a  :     0.010803 (c=  0.10393880)
    32a ->  50a  :     0.027750 (c= -0.16658401)
    32a ->  54a  :     0.027743 (c= -0.16656191)
    32a ->  55a  :     0.010509 (c= -0.10251429)
    37a ->  46a  :     0.010382 (c= -0.10188988)
    39a ->  46a  :     0.023866 (c= -0.15448471)
    39a ->  54a  :     0.022398 (c=  0.14965833)
    40a ->  46a  :     0.038108 (c= -0.19521214)
    40a ->  50a  :     0.033981 (c=  0.18433905)
    40a ->  54a  :     0.025144 (c=  0.15856827)
    41a ->  50a  :     0.012769 (c= -0.11300163)
    41a ->  51a  :     0.018483 (c=  0.13595306)
    41a ->  52a  :     0.129400 (c=  0.35972188)
    42a ->  52a  :     0.022532 (c=  0.15010784)
    43a ->  49a  :     0.010185 (c=  0.10092228)
    43a ->  50a  :     0.132287 (c= -0.36371270)
    43a ->  54a  :     0.038780 (c= -0.19692636)
    43a ->  55a  :     0.014860 (c= -0.12190230)
    44a ->  50a  :     0.017857 (c= -0.13362961)
    45a ->  46a  :     0.066132 (c=  0.25716162)
    45a ->  47a  :     0.010920 (c=  0.10449733)
    45a ->  49a  :     0.015070 (c= -0.12276152)
    45a ->  50a  :     0.093729 (c=  0.30615124)
    45a ->  54a  :     0.037359 (c=  0.19328593)
    45a ->  55a  :     0.015326 (c=  0.12379716)

STATE  7:  E=   0.159040 au      4.328 eV    34905.2 cm**-1
    39a ->  46a  :     0.038978 (c= -0.19742937)
    40a ->  46a  :     0.056649 (c=  0.23801142)
    41a ->  46a  :     0.031031 (c= -0.17615624)
    41a ->  50a  :     0.010372 (c=  0.10184380)
    41a ->  52a  :     0.034068 (c=  0.18457410)
    43a ->  46a  :     0.253248 (c= -0.50323752)
    43a ->  54a  :     0.018745 (c= -0.13691222)
    44a ->  46a  :     0.011018 (c= -0.10496742)
    45a ->  46a  :     0.283857 (c= -0.53278223)
    45a ->  47a  :     0.037481 (c= -0.19360066)
    45a ->  48a  :     0.010618 (c=  0.10304451)
    45a ->  50a  :     0.013304 (c=  0.11534111)
    45a ->  51a  :     0.018553 (c=  0.13620986)

STATE  8:  E=   0.161807 au      4.403 eV    35512.6 cm**-1
    43a ->  46a  :     0.021169 (c=  0.14549620)
    43a ->  48a  :     0.110456 (c=  0.33234984)
    44a ->  46a  :     0.067089 (c= -0.25901635)
    44a ->  47a  :     0.274600 (c=  0.52402316)
    44a ->  48a  :     0.167161 (c= -0.40885277)
    44a ->  49a  :     0.011146 (c= -0.10557642)
    45a ->  47a  :     0.042859 (c=  0.20702465)
    45a ->  48a  :     0.220151 (c=  0.46920215)

STATE  9:  E=   0.164003 au      4.463 eV    35994.4 cm**-1
    32a ->  52a  :     0.023734 (c=  0.15405763)
    39a ->  52a  :     0.014683 (c= -0.12117274)
    40a ->  46a  :     0.014702 (c=  0.12125002)
    40a ->  52a  :     0.027605 (c= -0.16614856)
    41a ->  46a  :     0.103353 (c=  0.32148592)
    41a ->  50a  :     0.128391 (c= -0.35831738)
    41a ->  54a  :     0.103767 (c= -0.32212864)
    41a ->  55a  :     0.038679 (c= -0.19666929)
    42a ->  46a  :     0.012358 (c=  0.11116702)
    42a ->  50a  :     0.034111 (c= -0.18469270)
    42a ->  54a  :     0.015934 (c= -0.12623096)
    43a ->  46a  :     0.041353 (c= -0.20335329)
    43a ->  48a  :     0.018171 (c=  0.13480160)
    43a ->  51a  :     0.037782 (c=  0.19437468)
    43a ->  52a  :     0.043975 (c=  0.20970253)
    44a ->  47a  :     0.010807 (c=  0.10395896)
    45a ->  46a  :     0.022232 (c= -0.14910444)
    45a ->  49a  :     0.011172 (c=  0.10569680)
    45a ->  50a  :     0.028184 (c=  0.16787962)
    45a ->  51a  :     0.072252 (c= -0.26879825)
    45a ->  52a  :     0.029573 (c= -0.17196824)

STATE 10:  E=   0.165099 au      4.493 eV    36235.0 cm**-1
    37a ->  46a  :     0.048286 (c= -0.21974017)
    37a ->  50a  :     0.033927 (c= -0.18419167)
    39a ->  46a  :     0.022310 (c= -0.14936615)
    39a ->  50a  :     0.027723 (c= -0.16650364)
    41a ->  46a  :     0.030771 (c= -0.17541668)
    41a ->  50a  :     0.031917 (c=  0.17865272)
    41a ->  51a  :     0.023718 (c= -0.15400596)
    41a ->  52a  :     0.191675 (c= -0.43780673)
    41a ->  54a  :     0.027163 (c=  0.16481329)
    41a ->  55a  :     0.012611 (c=  0.11229905)
    42a ->  52a  :     0.033831 (c= -0.18393190)
    43a ->  46a  :     0.010386 (c= -0.10191003)
    43a ->  50a  :     0.073517 (c= -0.27113991)
    44a ->  50a  :     0.012356 (c= -0.11115640)
    45a ->  50a  :     0.163388 (c=  0.40421295)
    45a ->  51a  :     0.037929 (c= -0.19475455)


----------------------
CIS-EXCITATION SPECTRA
----------------------

Center of mass = (  1.1298, -0.6750,  0.0403)
Calculating the Dipole integrals                  ... done
Transforming integrals                            ... done
Calculating the Linear Momentum integrals         ... done
Transforming integrals                            ... done
Calculating angular momentum integrals            ... done
Transforming integrals                            ... done

-----------------------------------------------------------------------------
         ABSORPTION SPECTRUM VIA TRANSITION ELECTRIC DIPOLE MOMENTS
-----------------------------------------------------------------------------
State   Energy  Wavelength   fosc         T2         TX        TY        TZ  
        (cm-1)    (nm)                  (au**2)     (au)      (au)      (au) 
-----------------------------------------------------------------------------
   1   31070.5    321.8   0.529096141   5.60612   2.18229  -0.83332  -0.38640
   2   34275.1    291.8   0.002021362   0.01942   0.07895  -0.09797   0.05986
   3   35190.0    284.2   0.005131840   0.04801  -0.08148  -0.20081  -0.03235
   4   38919.1    256.9   0.015959896   0.13500  -0.30921   0.18592   0.06945
   5   39922.0    250.5   0.000243470   0.00201  -0.01659  -0.03680  -0.01945
   6   41204.1    242.7   0.041056997   0.32804   0.44976  -0.34955   0.05974
   7   42454.3    235.5   0.081425461   0.63141   0.49815  -0.55249  -0.27932
   8   43224.7    231.3   0.035241116   0.26841   0.32658   0.30680   0.26005
   9   43627.4    229.2   0.005388491   0.04066   0.13360  -0.02974   0.14808
  10   44140.1    226.6   0.194046569   1.44726   0.71658   0.96576  -0.03306
  11   15936.9    627.5   spin forbidden (mult=3)
  12   16666.2    600.0   spin forbidden (mult=3)
  13   27948.0    357.8   spin forbidden (mult=3)
  14   28290.1    353.5   spin forbidden (mult=3)
  15   31465.4    317.8   spin forbidden (mult=3)
  16   32280.5    309.8   spin forbidden (mult=3)
  17   34905.2    286.5   spin forbidden (mult=3)
  18   35512.6    281.6   spin forbidden (mult=3)
  19   35994.4    277.8   spin forbidden (mult=3)
  20   36235.0    276.0   spin forbidden (mult=3)

-----------------------------------------------------------------------------
         ABSORPTION SPECTRUM VIA TRANSITION VELOCITY DIPOLE MOMENTS
-----------------------------------------------------------------------------
State   Energy  Wavelength   fosc         P2         PX        PY        PZ  
        (cm-1)    (nm)                  (au**2)     (au)      (au)      (au) 
-----------------------------------------------------------------------------
   1   31070.5    321.8   0.307271611   0.06525  -0.24624   0.06343   0.02431
   2   34275.1    291.8   0.007534776   0.00177  -0.00899   0.02597  -0.03178
   3   35190.0    284.2   0.002281902   0.00055   0.01121   0.02036   0.00292
   4   38919.1    256.9   0.011976368   0.00319   0.02982  -0.04781   0.00332
   5   39922.0    250.5   0.000621250   0.00017   0.00019   0.01201  -0.00503
   6   41204.1    242.7   0.034501581   0.00972  -0.05390   0.07348  -0.03757
   7   42454.3    235.5   0.034508810   0.01001  -0.08044   0.04170   0.04247
   8   43224.7    231.3   0.019756516   0.00584  -0.05359  -0.04258  -0.03393
   9   43627.4    229.2   0.004787289   0.00143  -0.02892  -0.01094  -0.02171
  10   44140.1    226.6   0.078859683   0.02379  -0.08977  -0.12490   0.01148
  11   15936.9    627.5   spin forbidden (mult=3)
  12   16666.2    600.0   spin forbidden (mult=3)
  13   27948.0    357.8   spin forbidden (mult=3)
  14   28290.1    353.5   spin forbidden (mult=3)
  15   31465.4    317.8   spin forbidden (mult=3)
  16   32280.5    309.8   spin forbidden (mult=3)
  17   34905.2    286.5   spin forbidden (mult=3)
  18   35512.6    281.6   spin forbidden (mult=3)
  19   35994.4    277.8   spin forbidden (mult=3)
  20   36235.0    276.0   spin forbidden (mult=3)

-------------------------------------------------------------------
                             CD SPECTRUM
-------------------------------------------------------------------
State   Energy Wavelength       R         MX        MY        MZ   
        (cm-1)   (nm)       (1e40*sgs)   (au)      (au)      (au)  
-------------------------------------------------------------------
   1   31070.5    321.8     50.82073   0.01270  -0.03736  -0.12669
   2   34275.1    291.8    -11.57008  -0.29733   0.01231   0.00233
   3   35190.0    284.2      0.03989  -0.00430  -0.00841   0.06042
   4   38919.1    256.9    -16.50257   0.11885  -0.03293   0.11331
   5   39922.0    250.5      2.52519  -0.03669  -0.07789  -0.09674
   6   41204.1    242.7    -20.22755  -0.11344  -0.01779   0.03177
   7   42454.3    235.5      5.73313  -0.00717  -0.00050  -0.05533
   8   43224.7    231.3     -0.27443  -0.00389  -0.13036   0.15644
   9   43627.4    229.2     21.03383   0.06982  -0.07165   0.22391
  10   44140.1    226.6      0.51061  -0.07675   0.04337  -0.42926
  11   15936.9    627.5 spin forbidden
  12   16666.2    600.0 spin forbidden
  13   27948.0    357.8 spin forbidden
  14   28290.1    353.5 spin forbidden
  15   31465.4    317.8 spin forbidden
  16   32280.5    309.8 spin forbidden
  17   34905.2    286.5 spin forbidden
  18   35512.6    281.6 spin forbidden
  19   35994.4    277.8 spin forbidden
  20   36235.0    276.0 spin forbidden

Total run time:        4.149 sec

           *** ORCA-CIS/TD-DFT FINISHED WITHOUT ERROR ***

-----------------------
CIS/TD-DFT TOTAL ENERGY
-----------------------

    E(SCF)  =      6.243303103 Eh
    DE(CIS) =      0.141567501 Eh (Root  1)
    ----------------------------- ---------
    E(tot)  =      6.384870604 Eh


-------------------------   --------------------
FINAL SINGLE POINT ENERGY         6.384870603893
-------------------------   --------------------


                            ***************************************
                            *     ORCA property calculations      *
                            ***************************************

                                    ---------------------
                                    Active property flags
                                    ---------------------
   (+) Dipole Moment


------------------------------------------------------------------------------
                       ORCA ELECTRIC PROPERTIES CALCULATION
------------------------------------------------------------------------------

Dipole Moment Calculation                       ... on
Quadrupole Moment Calculation                   ... off
Polarizability Calculation                      ... off
GBWName                                         ... AAGZWACRJUOJKJ-UHFFFAOYSA-N.gbw
Electron density file                           ... AAGZWACRJUOJKJ-UHFFFAOYSA-N.scfp.tmp

-------------
DIPOLE MOMENT
-------------
                                X             Y             Z
Electronic contribution:     64.13358     -68.99097       8.40511
Nuclear contribution   :     -7.70539      31.21247      -4.29524
                        -----------------------------------------
Total Dipole Moment    :     56.42820     -37.77850       4.10987
                        -----------------------------------------
Magnitude (a.u.)       :     68.03122
Magnitude (Debye)      :    172.92163


Timings for individual modules:

Sum of individual times         ...        4.256 sec (=   0.071 min)
STO integral calculation        ...        0.012 sec (=   0.000 min)   0.3 %
SCF iterations                  ...        0.087 sec (=   0.001 min)   2.0 %
CIS module                      ...        4.157 sec (=   0.069 min)  97.7 %
                             ****ORCA TERMINATED NORMALLY****
TOTAL RUN TIME: 0 days 0 hours 0 minutes 4 seconds 334 msec
